
     Program PW2WANNIER v.7.3.1 starts on 10Feb2025 at 16:55:12 

     This program is part of the open-source Quantum ESPRESSO suite
     for quantum simulation of materials; please cite
         "P. Giannozzi et al., J. Phys.:Condens. Matter 21 395502 (2009);
         "P. Giannozzi et al., J. Phys.:Condens. Matter 29 465901 (2017);
         "P. Giannozzi et al., J. Chem. Phys. 152 154105 (2020);
          URL http://www.quantum-espresso.org", 
     in publications or presentations arising from this work. More details at
     http://www.quantum-espresso.org/quote

     Parallel version (MPI & OpenMP), running on     144 processor cores
     Number of MPI processes:                72
     Threads/MPI process:                     2

     MPI processes distributed on    18 nodes
     K-points division:     npool     =       9
     R & G space division:  proc/nbgrp/npool/nimage =       8
     4971 MiB available memory on the printing compute node when the environment starts


     Reading nscf_save data

     Reading xml data from directory:

     ./out/bpbo.save/
     file Ba.rel-pbe-spn-rrkjus_psl.1.0.0.UPF: wavefunction(s)  5S 6S renormalized
     file Pb.rel-pbe-dn-rrkjus_psl.1.0.0.UPF: wavefunction(s)  6S 5D 5D renormalized
     file Bi.rel-pbe-dn-rrkjus_psl.1.0.0.UPF: wavefunction(s)  5D 5D renormalized

     IMPORTANT: XC functional enforced from input :
     Exchange-correlation= PBE
                           (   1   4   3   4   0   0   0)
     Any further DFT definition will be discarded
     Please, verify this is what you really want


     Parallelization info
     --------------------
     sticks:   dense  smooth     PW     G-vecs:    dense   smooth      PW
     Min        1631     814    226               139985    49487    7282
     Max        1632     818    227               139986    49488    7285
     Sum       13053    6525   1813              1119885   395903   58269

     Using Slab Decomposition

     Reading collected, re-writing distributed wavefunctions

  Spin CASE ( non-collinear )

  Wannier mode is: standalone     

  -----------------
  *** Reading nnkp 
  -----------------

  Checking info from wannier.nnkp file

  - Real lattice is ok
  - Reciprocal lattice is ok
  - K-points are ok
  - Number of wannier functions is ok (160)
  - All guiding functions are given 

  Projections:
    0.000000    0.000000    0.000000  0  1  1    1.000000
    0.000000    0.000000    0.000000  0  1  1    1.000000
    0.500000    0.500000    0.500000  0  1  1    1.000000
    0.500000    0.500000    0.500000  0  1  1    1.000000
    0.000000    0.000000    0.500000  0  1  1    1.000000
    0.000000    0.000000    0.500000  0  1  1    1.000000
    0.000000    0.500000    0.000000  0  1  1    1.000000
    0.000000    0.500000    0.000000  0  1  1    1.000000
    0.000000    0.500000    0.500000  0  1  1    1.000000
    0.000000    0.500000    0.500000  0  1  1    1.000000
    0.500000    0.000000    0.000000  0  1  1    1.000000
    0.500000    0.000000    0.000000  0  1  1    1.000000
    0.500000    0.000000    0.500000  0  1  1    1.000000
    0.500000    0.000000    0.500000  0  1  1    1.000000
    0.500000    0.500000    0.000000  0  1  1    1.000000
    0.500000    0.500000    0.000000  0  1  1    1.000000
    0.000000    0.250000    0.000000  1  1  1    1.000000
    0.000000    0.250000    0.000000  1  1  1    1.000000
    0.000000    0.250000    0.000000  1  2  1    1.000000
    0.000000    0.250000    0.000000  1  2  1    1.000000
    0.000000    0.250000    0.000000  1  3  1    1.000000
    0.000000    0.250000    0.000000  1  3  1    1.000000
    0.000000    0.250000    0.500000  1  1  1    1.000000
    0.000000    0.250000    0.500000  1  1  1    1.000000
    0.000000    0.250000    0.500000  1  2  1    1.000000
    0.000000    0.250000    0.500000  1  2  1    1.000000
    0.000000    0.250000    0.500000  1  3  1    1.000000
    0.000000    0.250000    0.500000  1  3  1    1.000000
    0.000000    0.750000    0.000000  1  1  1    1.000000
    0.000000    0.750000    0.000000  1  1  1    1.000000
    0.000000    0.750000    0.000000  1  2  1    1.000000
    0.000000    0.750000    0.000000  1  2  1    1.000000
    0.000000    0.750000    0.000000  1  3  1    1.000000
    0.000000    0.750000    0.000000  1  3  1    1.000000
    0.000000    0.750000    0.500000  1  1  1    1.000000
    0.000000    0.750000    0.500000  1  1  1    1.000000
    0.000000    0.750000    0.500000  1  2  1    1.000000
    0.000000    0.750000    0.500000  1  2  1    1.000000
    0.000000    0.750000    0.500000  1  3  1    1.000000
    0.000000    0.750000    0.500000  1  3  1    1.000000
    0.500000    0.250000    0.000000  1  1  1    1.000000
    0.500000    0.250000    0.000000  1  1  1    1.000000
    0.500000    0.250000    0.000000  1  2  1    1.000000
    0.500000    0.250000    0.000000  1  2  1    1.000000
    0.500000    0.250000    0.000000  1  3  1    1.000000
    0.500000    0.250000    0.000000  1  3  1    1.000000
    0.500000    0.250000    0.500000  1  1  1    1.000000
    0.500000    0.250000    0.500000  1  1  1    1.000000
    0.500000    0.250000    0.500000  1  2  1    1.000000
    0.500000    0.250000    0.500000  1  2  1    1.000000
    0.500000    0.250000    0.500000  1  3  1    1.000000
    0.500000    0.250000    0.500000  1  3  1    1.000000
    0.500000    0.750000    0.000000  1  1  1    1.000000
    0.500000    0.750000    0.000000  1  1  1    1.000000
    0.500000    0.750000    0.000000  1  2  1    1.000000
    0.500000    0.750000    0.000000  1  2  1    1.000000
    0.500000    0.750000    0.000000  1  3  1    1.000000
    0.500000    0.750000    0.000000  1  3  1    1.000000
    0.500000    0.750000    0.500000  1  1  1    1.000000
    0.500000    0.750000    0.500000  1  1  1    1.000000
    0.500000    0.750000    0.500000  1  2  1    1.000000
    0.500000    0.750000    0.500000  1  2  1    1.000000
    0.500000    0.750000    0.500000  1  3  1    1.000000
    0.500000    0.750000    0.500000  1  3  1    1.000000
    0.000000    0.000000    0.250000  1  1  1    1.000000
    0.000000    0.000000    0.250000  1  1  1    1.000000
    0.000000    0.000000    0.250000  1  2  1    1.000000
    0.000000    0.000000    0.250000  1  2  1    1.000000
    0.000000    0.000000    0.250000  1  3  1    1.000000
    0.000000    0.000000    0.250000  1  3  1    1.000000
    0.000000    0.000000    0.750000  1  1  1    1.000000
    0.000000    0.000000    0.750000  1  1  1    1.000000
    0.000000    0.000000    0.750000  1  2  1    1.000000
    0.000000    0.000000    0.750000  1  2  1    1.000000
    0.000000    0.000000    0.750000  1  3  1    1.000000
    0.000000    0.000000    0.750000  1  3  1    1.000000
    0.000000    0.500000    0.250000  1  1  1    1.000000
    0.000000    0.500000    0.250000  1  1  1    1.000000
    0.000000    0.500000    0.250000  1  2  1    1.000000
    0.000000    0.500000    0.250000  1  2  1    1.000000
    0.000000    0.500000    0.250000  1  3  1    1.000000
    0.000000    0.500000    0.250000  1  3  1    1.000000
    0.000000    0.500000    0.750000  1  1  1    1.000000
    0.000000    0.500000    0.750000  1  1  1    1.000000
    0.000000    0.500000    0.750000  1  2  1    1.000000
    0.000000    0.500000    0.750000  1  2  1    1.000000
    0.000000    0.500000    0.750000  1  3  1    1.000000
    0.000000    0.500000    0.750000  1  3  1    1.000000
    0.500000    0.000000    0.250000  1  1  1    1.000000
    0.500000    0.000000    0.250000  1  1  1    1.000000
    0.500000    0.000000    0.250000  1  2  1    1.000000
    0.500000    0.000000    0.250000  1  2  1    1.000000
    0.500000    0.000000    0.250000  1  3  1    1.000000
    0.500000    0.000000    0.250000  1  3  1    1.000000
    0.500000    0.000000    0.750000  1  1  1    1.000000
    0.500000    0.000000    0.750000  1  1  1    1.000000
    0.500000    0.000000    0.750000  1  2  1    1.000000
    0.500000    0.000000    0.750000  1  2  1    1.000000
    0.500000    0.000000    0.750000  1  3  1    1.000000
    0.500000    0.000000    0.750000  1  3  1    1.000000
    0.500000    0.500000    0.250000  1  1  1    1.000000
    0.500000    0.500000    0.250000  1  1  1    1.000000
    0.500000    0.500000    0.250000  1  2  1    1.000000
    0.500000    0.500000    0.250000  1  2  1    1.000000
    0.500000    0.500000    0.250000  1  3  1    1.000000
    0.500000    0.500000    0.250000  1  3  1    1.000000
    0.500000    0.500000    0.750000  1  1  1    1.000000
    0.500000    0.500000    0.750000  1  1  1    1.000000
    0.500000    0.500000    0.750000  1  2  1    1.000000
    0.500000    0.500000    0.750000  1  2  1    1.000000
    0.500000    0.500000    0.750000  1  3  1    1.000000
    0.500000    0.500000    0.750000  1  3  1    1.000000
    0.250000    0.000000    0.000000  1  1  1    1.000000
    0.250000    0.000000    0.000000  1  1  1    1.000000
    0.250000    0.000000    0.000000  1  2  1    1.000000
    0.250000    0.000000    0.000000  1  2  1    1.000000
    0.250000    0.000000    0.000000  1  3  1    1.000000
    0.250000    0.000000    0.000000  1  3  1    1.000000
    0.250000    0.000000    0.500000  1  1  1    1.000000
    0.250000    0.000000    0.500000  1  1  1    1.000000
    0.250000    0.000000    0.500000  1  2  1    1.000000
    0.250000    0.000000    0.500000  1  2  1    1.000000
    0.250000    0.000000    0.500000  1  3  1    1.000000
    0.250000    0.000000    0.500000  1  3  1    1.000000
    0.250000    0.500000    0.000000  1  1  1    1.000000
    0.250000    0.500000    0.000000  1  1  1    1.000000
    0.250000    0.500000    0.000000  1  2  1    1.000000
    0.250000    0.500000    0.000000  1  2  1    1.000000
    0.250000    0.500000    0.000000  1  3  1    1.000000
    0.250000    0.500000    0.000000  1  3  1    1.000000
    0.250000    0.500000    0.500000  1  1  1    1.000000
    0.250000    0.500000    0.500000  1  1  1    1.000000
    0.250000    0.500000    0.500000  1  2  1    1.000000
    0.250000    0.500000    0.500000  1  2  1    1.000000
    0.250000    0.500000    0.500000  1  3  1    1.000000
    0.250000    0.500000    0.500000  1  3  1    1.000000
    0.750000    0.000000    0.000000  1  1  1    1.000000
    0.750000    0.000000    0.000000  1  1  1    1.000000
    0.750000    0.000000    0.000000  1  2  1    1.000000
    0.750000    0.000000    0.000000  1  2  1    1.000000
    0.750000    0.000000    0.000000  1  3  1    1.000000
    0.750000    0.000000    0.000000  1  3  1    1.000000
    0.750000    0.000000    0.500000  1  1  1    1.000000
    0.750000    0.000000    0.500000  1  1  1    1.000000
    0.750000    0.000000    0.500000  1  2  1    1.000000
    0.750000    0.000000    0.500000  1  2  1    1.000000
    0.750000    0.000000    0.500000  1  3  1    1.000000
    0.750000    0.000000    0.500000  1  3  1    1.000000
    0.750000    0.500000    0.000000  1  1  1    1.000000
    0.750000    0.500000    0.000000  1  1  1    1.000000
    0.750000    0.500000    0.000000  1  2  1    1.000000
    0.750000    0.500000    0.000000  1  2  1    1.000000
    0.750000    0.500000    0.000000  1  3  1    1.000000
    0.750000    0.500000    0.000000  1  3  1    1.000000
    0.750000    0.500000    0.500000  1  1  1    1.000000
    0.750000    0.500000    0.500000  1  1  1    1.000000
    0.750000    0.500000    0.500000  1  2  1    1.000000
    0.750000    0.500000    0.500000  1  2  1    1.000000
    0.750000    0.500000    0.500000  1  3  1    1.000000
    0.750000    0.500000    0.500000  1  3  1    1.000000

  Reading data about k-point neighbours 

  All neighbours are found 

  Opening pp-files 


  --------------------------
  *** Compute  A projections
  --------------------------

  Number of local k points =        8
       1       2       3       4       5       6       7       8
  AMN calculated

  ---------------
  *** Compute  M 
  ---------------

  Number of local k points =        8
       1       2       3       4       5       6       7       8
  MMN calculated

  ------------------
  *** Compute  Spin 
  ------------------

  Number of local k points =        8
       1       2       3       4       5       6       7       8
  SPIN calculated

  -----------------------------------
  *** Orbital terms are not computed 
  -----------------------------------

  -----------------------------------
  *** SHC terms are not computed 
  -----------------------------------

  ----------------
  *** Write bands 
  ----------------


  -----------------------------
  *** Plot info is not printed 
  -----------------------------

  -----------------------------
  *** Parity info is not printed 
  -----------------------------

  ------------
  *** Stop pp 
  ------------


     init_pw2wan  :     35.50s CPU    474.51s WALL (       1 calls)
     compute_amn  :    125.88s CPU    122.13s WALL (       1 calls)
     compute_mmn  :   2625.26s CPU   2697.03s WALL (       1 calls)
     compute_spin :    177.35s CPU    180.78s WALL (       1 calls)

     Internal routines:
     compute_u_kb :    506.32s CPU    541.05s WALL (      48 calls)

     PW2WANNIER   :   2964.01s CPU   3476.76s WALL


   This run was terminated on:  17:53: 9  10Feb2025            

=------------------------------------------------------------------------------=
   JOB DONE.
=------------------------------------------------------------------------------=

