 
             +---------------------------------------------------+
             |                                                   |
             |                   WANNIER90                       |
             |                                                   |
             +---------------------------------------------------+
             |                                                   |
             |        Welcome to the Maximally-Localized         |
             |        Generalized Wannier Functions code         |
             |            http://www.wannier.org                 |
             |                                                   |
             |                                                   |
             |  Wannier90 Developer Group:                       |
             |    Giovanni Pizzi    (EPFL)                       |
             |    Valerio Vitale    (Cambridge)                  |
             |    David Vanderbilt  (Rutgers University)         |
             |    Nicola Marzari    (EPFL)                       |
             |    Ivo Souza         (Universidad del Pais Vasco) |
             |    Arash A. Mostofi  (Imperial College London)    |
             |    Jonathan R. Yates (University of Oxford)       |
             |                                                   |
             |  For the full list of Wannier90 3.x authors,      |
             |  please check the code documentation and the      |
             |  README on the GitHub page of the code            |
             |                                                   |
             |                                                   |
             |  Please cite                                      |
             |                                                   |
             |  [ref] "Wannier90 as a community code:            |
             |        new features and applications",            |
             |        G. Pizzi et al., J. Phys. Cond. Matt. 32,  |
             |        165902 (2020).                             |
             |        http://doi.org/10.1088/1361-648X/ab51ff    |
             |                                                   |
             |  in any publications arising from the use of      |
             |  this code. For the method please cite            |
             |                                                   |
             |  [ref] "Maximally Localized Generalised Wannier   |
             |         Functions for Composite Energy Bands"     |
             |         N. Marzari and D. Vanderbilt              |
             |         Phys. Rev. B 56 12847 (1997)              |
             |                                                   |
             |  [ref] "Maximally Localized Wannier Functions     |
             |         for Entangled Energy Bands"               |
             |         I. Souza, N. Marzari and D. Vanderbilt    |
             |         Phys. Rev. B 65 035109 (2001)             |
             |                                                   |
             |                                                   |
             | Copyright (c) 1996-2020                           |
             |        The Wannier90 Developer Group and          |
             |        individual contributors                    |
             |                                                   |
             |      Release: 3.1.0        5th March    2020      |
             |                                                   |
             | This program is free software; you can            |
             | redistribute it and/or modify it under the terms  |
             | of the GNU General Public License as published by |
             | the Free Software Foundation; either version 2 of |
             | the License, or (at your option) any later version|
             |                                                   |
             | This program is distributed in the hope that it   |
             | will be useful, but WITHOUT ANY WARRANTY; without |
             | even the implied warranty of MERCHANTABILITY or   |
             | FITNESS FOR A PARTICULAR PURPOSE. See the GNU     |
             | General Public License for more details.          |
             |                                                   |
             | You should have received a copy of the GNU General|
             | Public License along with this program; if not,   |
             | write to the Free Software Foundation, Inc.,      |
             | 675 Mass Ave, Cambridge, MA 02139, USA.           |
             |                                                   |
             +---------------------------------------------------+
             |    Execution started on 19Nov2024 at 05:19:57     |
             +---------------------------------------------------+
 
 ******************************************************************************
 * -> Using CODATA 2006 constant values                                       *
 *    (http://physics.nist.gov/cuu/Constants/index.html)                      *
 * -> Using Bohr value from CODATA                                            *
 ******************************************************************************
 

 Running in parallel on  36 CPUs

 Exiting.......
 No BPBO.eig file found. Needed for disentanglement
 
             +---------------------------------------------------+
             |                                                   |
             |                   WANNIER90                       |
             |                                                   |
             +---------------------------------------------------+
             |                                                   |
             |        Welcome to the Maximally-Localized         |
             |        Generalized Wannier Functions code         |
             |            http://www.wannier.org                 |
             |                                                   |
             |                                                   |
             |  Wannier90 Developer Group:                       |
             |    Giovanni Pizzi    (EPFL)                       |
             |    Valerio Vitale    (Cambridge)                  |
             |    David Vanderbilt  (Rutgers University)         |
             |    Nicola Marzari    (EPFL)                       |
             |    Ivo Souza         (Universidad del Pais Vasco) |
             |    Arash A. Mostofi  (Imperial College London)    |
             |    Jonathan R. Yates (University of Oxford)       |
             |                                                   |
             |  For the full list of Wannier90 3.x authors,      |
             |  please check the code documentation and the      |
             |  README on the GitHub page of the code            |
             |                                                   |
             |                                                   |
             |  Please cite                                      |
             |                                                   |
             |  [ref] "Wannier90 as a community code:            |
             |        new features and applications",            |
             |        G. Pizzi et al., J. Phys. Cond. Matt. 32,  |
             |        165902 (2020).                             |
             |        http://doi.org/10.1088/1361-648X/ab51ff    |
             |                                                   |
             |  in any publications arising from the use of      |
             |  this code. For the method please cite            |
             |                                                   |
             |  [ref] "Maximally Localized Generalised Wannier   |
             |         Functions for Composite Energy Bands"     |
             |         N. Marzari and D. Vanderbilt              |
             |         Phys. Rev. B 56 12847 (1997)              |
             |                                                   |
             |  [ref] "Maximally Localized Wannier Functions     |
             |         for Entangled Energy Bands"               |
             |         I. Souza, N. Marzari and D. Vanderbilt    |
             |         Phys. Rev. B 65 035109 (2001)             |
             |                                                   |
             |                                                   |
             | Copyright (c) 1996-2020                           |
             |        The Wannier90 Developer Group and          |
             |        individual contributors                    |
             |                                                   |
             |      Release: 3.1.0        5th March    2020      |
             |                                                   |
             | This program is free software; you can            |
             | redistribute it and/or modify it under the terms  |
             | of the GNU General Public License as published by |
             | the Free Software Foundation; either version 2 of |
             | the License, or (at your option) any later version|
             |                                                   |
             | This program is distributed in the hope that it   |
             | will be useful, but WITHOUT ANY WARRANTY; without |
             | even the implied warranty of MERCHANTABILITY or   |
             | FITNESS FOR A PARTICULAR PURPOSE. See the GNU     |
             | General Public License for more details.          |
             |                                                   |
             | You should have received a copy of the GNU General|
             | Public License along with this program; if not,   |
             | write to the Free Software Foundation, Inc.,      |
             | 675 Mass Ave, Cambridge, MA 02139, USA.           |
             |                                                   |
             +---------------------------------------------------+
             |    Execution started on 19Nov2024 at 05:19:59     |
             +---------------------------------------------------+
 
 ******************************************************************************
 * -> Using CODATA 2006 constant values                                       *
 *    (http://physics.nist.gov/cuu/Constants/index.html)                      *
 * -> Using Bohr value from CODATA                                            *
 ******************************************************************************
 

 Running in parallel on  36 CPUs

 Exiting.......
 No BPBO.eig file found. Needed for disentanglement
 
             +---------------------------------------------------+
             |                                                   |
             |                   WANNIER90                       |
             |                                                   |
             +---------------------------------------------------+
             |                                                   |
             |        Welcome to the Maximally-Localized         |
             |        Generalized Wannier Functions code         |
             |            http://www.wannier.org                 |
             |                                                   |
             |                                                   |
             |  Wannier90 Developer Group:                       |
             |    Giovanni Pizzi    (EPFL)                       |
             |    Valerio Vitale    (Cambridge)                  |
             |    David Vanderbilt  (Rutgers University)         |
             |    Nicola Marzari    (EPFL)                       |
             |    Ivo Souza         (Universidad del Pais Vasco) |
             |    Arash A. Mostofi  (Imperial College London)    |
             |    Jonathan R. Yates (University of Oxford)       |
             |                                                   |
             |  For the full list of Wannier90 3.x authors,      |
             |  please check the code documentation and the      |
             |  README on the GitHub page of the code            |
             |                                                   |
             |                                                   |
             |  Please cite                                      |
             |                                                   |
             |  [ref] "Wannier90 as a community code:            |
             |        new features and applications",            |
             |        G. Pizzi et al., J. Phys. Cond. Matt. 32,  |
             |        165902 (2020).                             |
             |        http://doi.org/10.1088/1361-648X/ab51ff    |
             |                                                   |
             |  in any publications arising from the use of      |
             |  this code. For the method please cite            |
             |                                                   |
             |  [ref] "Maximally Localized Generalised Wannier   |
             |         Functions for Composite Energy Bands"     |
             |         N. Marzari and D. Vanderbilt              |
             |         Phys. Rev. B 56 12847 (1997)              |
             |                                                   |
             |  [ref] "Maximally Localized Wannier Functions     |
             |         for Entangled Energy Bands"               |
             |         I. Souza, N. Marzari and D. Vanderbilt    |
             |         Phys. Rev. B 65 035109 (2001)             |
             |                                                   |
             |                                                   |
             | Copyright (c) 1996-2020                           |
             |        The Wannier90 Developer Group and          |
             |        individual contributors                    |
             |                                                   |
             |      Release: 3.1.0        5th March    2020      |
             |                                                   |
             | This program is free software; you can            |
             | redistribute it and/or modify it under the terms  |
             | of the GNU General Public License as published by |
             | the Free Software Foundation; either version 2 of |
             | the License, or (at your option) any later version|
             |                                                   |
             | This program is distributed in the hope that it   |
             | will be useful, but WITHOUT ANY WARRANTY; without |
             | even the implied warranty of MERCHANTABILITY or   |
             | FITNESS FOR A PARTICULAR PURPOSE. See the GNU     |
             | General Public License for more details.          |
             |                                                   |
             | You should have received a copy of the GNU General|
             | Public License along with this program; if not,   |
             | write to the Free Software Foundation, Inc.,      |
             | 675 Mass Ave, Cambridge, MA 02139, USA.           |
             |                                                   |
             +---------------------------------------------------+
             |    Execution started on 19Nov2024 at 05:20:00     |
             +---------------------------------------------------+
 
 ******************************************************************************
 * -> Using CODATA 2006 constant values                                       *
 *    (http://physics.nist.gov/cuu/Constants/index.html)                      *
 * -> Using Bohr value from CODATA                                            *
 ******************************************************************************
 

 Running in parallel on  36 CPUs

 Exiting.......
 No BPBO.eig file found. Needed for disentanglement
 
             +---------------------------------------------------+
             |                                                   |
             |                   WANNIER90                       |
             |                                                   |
             +---------------------------------------------------+
             |                                                   |
             |        Welcome to the Maximally-Localized         |
             |        Generalized Wannier Functions code         |
             |            http://www.wannier.org                 |
             |                                                   |
             |                                                   |
             |  Wannier90 Developer Group:                       |
             |    Giovanni Pizzi    (EPFL)                       |
             |    Valerio Vitale    (Cambridge)                  |
             |    David Vanderbilt  (Rutgers University)         |
             |    Nicola Marzari    (EPFL)                       |
             |    Ivo Souza         (Universidad del Pais Vasco) |
             |    Arash A. Mostofi  (Imperial College London)    |
             |    Jonathan R. Yates (University of Oxford)       |
             |                                                   |
             |  For the full list of Wannier90 3.x authors,      |
             |  please check the code documentation and the      |
             |  README on the GitHub page of the code            |
             |                                                   |
             |                                                   |
             |  Please cite                                      |
             |                                                   |
             |  [ref] "Wannier90 as a community code:            |
             |        new features and applications",            |
             |        G. Pizzi et al., J. Phys. Cond. Matt. 32,  |
             |        165902 (2020).                             |
             |        http://doi.org/10.1088/1361-648X/ab51ff    |
             |                                                   |
             |  in any publications arising from the use of      |
             |  this code. For the method please cite            |
             |                                                   |
             |  [ref] "Maximally Localized Generalised Wannier   |
             |         Functions for Composite Energy Bands"     |
             |         N. Marzari and D. Vanderbilt              |
             |         Phys. Rev. B 56 12847 (1997)              |
             |                                                   |
             |  [ref] "Maximally Localized Wannier Functions     |
             |         for Entangled Energy Bands"               |
             |         I. Souza, N. Marzari and D. Vanderbilt    |
             |         Phys. Rev. B 65 035109 (2001)             |
             |                                                   |
             |                                                   |
             | Copyright (c) 1996-2020                           |
             |        The Wannier90 Developer Group and          |
             |        individual contributors                    |
             |                                                   |
             |      Release: 3.1.0        5th March    2020      |
             |                                                   |
             | This program is free software; you can            |
             | redistribute it and/or modify it under the terms  |
             | of the GNU General Public License as published by |
             | the Free Software Foundation; either version 2 of |
             | the License, or (at your option) any later version|
             |                                                   |
             | This program is distributed in the hope that it   |
             | will be useful, but WITHOUT ANY WARRANTY; without |
             | even the implied warranty of MERCHANTABILITY or   |
             | FITNESS FOR A PARTICULAR PURPOSE. See the GNU     |
             | General Public License for more details.          |
             |                                                   |
             | You should have received a copy of the GNU General|
             | Public License along with this program; if not,   |
             | write to the Free Software Foundation, Inc.,      |
             | 675 Mass Ave, Cambridge, MA 02139, USA.           |
             |                                                   |
             +---------------------------------------------------+
             |    Execution started on 29Nov2024 at 15:59:42     |
             +---------------------------------------------------+
 
 ******************************************************************************
 * -> Using CODATA 2006 constant values                                       *
 *    (http://physics.nist.gov/cuu/Constants/index.html)                      *
 * -> Using Bohr value from CODATA                                            *
 ******************************************************************************
 

 Running in parallel on  20 CPUs

 
                                    ------
                                    SYSTEM
                                    ------
 
                              Lattice Vectors (Ang)
                    a_1     8.724442   0.000000   0.000000
                    a_2     0.000000   8.724442   0.000000
                    a_3     0.000000   0.000000   8.724442
 
                   Unit Cell Volume:     664.06854  (Ang^3)
 
                        Reciprocal-Space Vectors (Ang^-1)
                    b_1     0.720182   0.000000   0.000000
                    b_2     0.000000   0.720182   0.000000
                    b_3     0.000000   0.000000   0.720182
  
 *----------------------------------------------------------------------------*
 |   Site       Fractional Coordinate          Cartesian Coordinate (Ang)     |
 +----------------------------------------------------------------------------+
 | Ba   1   0.25000   0.25000   0.25000   |    2.18111   2.18111   2.18111    |
 | Ba   2   0.25000   0.25000   0.75000   |    2.18111   2.18111   6.54333    |
 | Ba   3   0.25000   0.75000   0.25000   |    2.18111   6.54333   2.18111    |
 | Ba   4   0.25000   0.75000   0.75000   |    2.18111   6.54333   6.54333    |
 | Ba   5   0.75000   0.25000   0.25000   |    6.54333   2.18111   2.18111    |
 | Ba   6   0.75000   0.25000   0.75000   |    6.54333   2.18111   6.54333    |
 | Ba   7   0.75000   0.75000   0.25000   |    6.54333   6.54333   2.18111    |
 | Ba   8   0.75000   0.75000   0.75000   |    6.54333   6.54333   6.54333    |
 | Bi   1   0.00000   0.00000   0.00000   |    0.00000   0.00000   0.00000    |
 | Pb   1   0.50000   0.50000   0.50000   |    4.36222   4.36222   4.36222    |
 | Pb   2   0.00000   0.00000   0.50000   |    0.00000   0.00000   4.36222    |
 | Pb   3   0.00000   0.50000   0.00000   |    0.00000   4.36222   0.00000    |
 | Pb   4   0.00000   0.50000   0.50000   |    0.00000   4.36222   4.36222    |
 | Pb   5   0.50000   0.00000   0.00000   |    4.36222   0.00000   0.00000    |
 | Pb   6   0.50000   0.00000   0.50000   |    4.36222   0.00000   4.36222    |
 | Pb   7   0.50000   0.50000   0.00000   |    4.36222   4.36222   0.00000    |
 | O    1   0.00000   0.25000   0.00000   |    0.00000   2.18111   0.00000    |
 | O    2   0.00000   0.25000   0.50000   |    0.00000   2.18111   4.36222    |
 | O    3   0.00000   0.75000   0.00000   |    0.00000   6.54333   0.00000    |
 | O    4   0.00000   0.75000   0.50000   |    0.00000   6.54333   4.36222    |
 | O    5   0.50000   0.25000   0.00000   |    4.36222   2.18111   0.00000    |
 | O    6   0.50000   0.25000   0.50000   |    4.36222   2.18111   4.36222    |
 | O    7   0.50000   0.75000   0.00000   |    4.36222   6.54333   0.00000    |
 | O    8   0.50000   0.75000   0.50000   |    4.36222   6.54333   4.36222    |
 | O    9   0.00000   0.00000   0.25000   |    0.00000   0.00000   2.18111    |
 | O   10   0.00000   0.00000   0.75000   |    0.00000   0.00000   6.54333    |
 | O   11   0.00000   0.50000   0.25000   |    0.00000   4.36222   2.18111    |
 | O   12   0.00000   0.50000   0.75000   |    0.00000   4.36222   6.54333    |
 | O   13   0.50000   0.00000   0.25000   |    4.36222   0.00000   2.18111    |
 | O   14   0.50000   0.00000   0.75000   |    4.36222   0.00000   6.54333    |
 | O   15   0.50000   0.50000   0.25000   |    4.36222   4.36222   2.18111    |
 | O   16   0.50000   0.50000   0.75000   |    4.36222   4.36222   6.54333    |
 | O   17   0.25000   0.00000   0.00000   |    2.18111   0.00000   0.00000    |
 | O   18   0.25000   0.00000   0.50000   |    2.18111   0.00000   4.36222    |
 | O   19   0.25000   0.50000   0.00000   |    2.18111   4.36222   0.00000    |
 | O   20   0.25000   0.50000   0.50000   |    2.18111   4.36222   4.36222    |
 | O   21   0.75000   0.00000   0.00000   |    6.54333   0.00000   0.00000    |
 | O   22   0.75000   0.00000   0.50000   |    6.54333   0.00000   4.36222    |
 | O   23   0.75000   0.50000   0.00000   |    6.54333   4.36222   0.00000    |
 | O   24   0.75000   0.50000   0.50000   |    6.54333   4.36222   4.36222    |
 *----------------------------------------------------------------------------*
  
  
 *-------------------------------- POSTW90 -----------------------------------*
 |  Number of Wannier Functions               :               160             |
 |  Number of electrons per state             :                 1             |
 |  Scissor shift applied to conduction bands :             0.000             |
 |  Number of valence bands                   :       not defined             |
 |  Fermi energy     :     301 steps from    7.545 to   10.545 eV             |
 |  Output verbosity (1=low, 5=high)          :                 1             |
 |  Timing Level (1=low, 5=high)              :                 1             |
 |  Optimisation (0=memory, 3=speed)          :                 3             |
 |  Length Unit                               :               Ang             |
 *----------------------------------------------------------------------------*
 *------------------------ Global Smearing Parameters ------------------------*
 |  Adaptive width smearing                   :                 T             |
 |  Adaptive smearing factor                  :             1.414             |
 |  Maximum allowed smearing width (eV)       :             1.000             |
 |  Smearing Function                                             Gaussian    |
 |  Global interpolation k-points defined     :                 F             |
 *----------------------------------------------------------------------------*
 *----------------------------------------------------------------------------*
 *--------------------------------- BERRY ------------------------------------*
 |  Compute Berry Phase related properties    :                 T             |
 |  Compute Optical Conductivity and JDOS     :                 F             |
 |  Compute Anomalous Hall Conductivity       :                 F             |
 |  Compute Shift Current                     :                 F             |
 |  Compute Orbital Magnetisation             :                 F             |
 |  Compute Spin Hall Conductivity            :                 T             |
 |  Lower frequency for optical responses     :             0.000             |
 |  Upper frequency for optical responses     :             6.322             |
 |  Step size for optical responses           :             0.010             |
 |  Upper eigenvalue for optical responses    :            13.867             |
 |  Using global smearing parameters                                          |
 |  Grid size                                 :    51 x  51 x  51             |
 |  Adaptive refinement                       :              none             |
 *----------------------------------------------------------------------------*
 Time to read parameters        0.057 (sec)

 *---------------------------------- K-MESH ----------------------------------*
 +----------------------------------------------------------------------------+
 |                    Distance to Nearest-Neighbour Shells                    |
 |                    ------------------------------------                    |
 |          Shell             Distance (Ang^-1)          Multiplicity         |
 |          -----             -----------------          ------------         |
 |             1                   0.180045                      6            |
 |             2                   0.254623                     12            |
 |             3                   0.311848                      8            |
 |             4                   0.360091                      6            |
 |             5                   0.402594                     24            |
 |             6                   0.441020                     24            |
 |             7                   0.509246                     12            |
 |             8                   0.540136                     30            |
 |             9                   0.569354                     24            |
 |            10                   0.597143                     24            |
 |            11                   0.623696                      8            |
 |            12                   0.649163                     24            |
 |            13                   0.673669                     48            |
 |            14                   0.720182                      6            |
 |            15                   0.742347                     48            |
 |            16                   0.763868                     36            |
 |            17                   0.784800                     24            |
 |            18                   0.805188                     24            |
 |            19                   0.825072                     48            |
 |            20                   0.844488                     24            |
 |            21                   0.882039                     24            |
 |            22                   0.900227                     30            |
 |            23                   0.918055                     72            |
 |            24                   0.935544                     32            |
 |            25                   0.969575                     72            |
 |            26                   0.986150                     48            |
 |            27                   1.018491                     12            |
 |            28                   1.034283                     48            |
 |            29                   1.049837                     48            |
 |            30                   1.065163                     48            |
 |            31                   1.080273                     30            |
 |            32                   1.095174                     24            |
 |            33                   1.109875                     72            |
 |            34                   1.138708                     24            |
 |            35                   1.152854                     96            |
 |            36                   1.166828                     48            |
 +----------------------------------------------------------------------------+
 | The b-vectors are chosen automatically                                     |
 | The following shells are used:   1                                         |
 +----------------------------------------------------------------------------+
 |                        Shell   # Nearest-Neighbours                        |
 |                        -----   --------------------                        |
 |                          1               6                                 |
 +----------------------------------------------------------------------------+
 | Completeness relation is fully satisfied [Eq. (B1), PRB 56, 12847 (1997)]  |
 +----------------------------------------------------------------------------+
 |                  b_k Vectors (Ang^-1) and Weights (Ang^2)                  |
 |                  ----------------------------------------                  |
 |            No.         b_k(x)      b_k(y)      b_k(z)        w_b           |
 |            ---        --------------------------------     --------        |
 |             1         0.000000    0.000000    0.180045    15.424302        |
 |             2         0.000000    0.180045    0.000000    15.424302        |
 |             3         0.180045    0.000000    0.000000    15.424302        |
 |             4         0.000000    0.000000   -0.180045    15.424302        |
 |             5         0.000000   -0.180045    0.000000    15.424302        |
 |             6        -0.180045    0.000000    0.000000    15.424302        |
 +----------------------------------------------------------------------------+
 |                           b_k Directions (Ang^-1)                          |
 |                           -----------------------                          |
 |            No.           x           y           z                         |
 |            ---        --------------------------------                     |
 |             1         0.000000    0.000000    0.180045                     |
 |             2         0.000000    0.180045    0.000000                     |
 |             3         0.180045    0.000000    0.000000                     |
 +----------------------------------------------------------------------------+
  
 Time to get kmesh              0.033 (sec)
 Reading restart information from file BPBO.chk :
 written on 29Nov2024 at 15:58:08 ... done


 Time to read and process       2.392 (sec)

 Reading overlaps from BPBO.mmn in get_AA_R   :  Created on 27Nov2024 at 14:18:36

 Reading spin matrices from BPBO.spn in get_SS_R : Created on 29Nov2024 at 12:35:41
 
             +---------------------------------------------------+
             |                                                   |
             |                   WANNIER90                       |
             |                                                   |
             +---------------------------------------------------+
             |                                                   |
             |        Welcome to the Maximally-Localized         |
             |        Generalized Wannier Functions code         |
             |            http://www.wannier.org                 |
             |                                                   |
             |                                                   |
             |  Wannier90 Developer Group:                       |
             |    Giovanni Pizzi    (EPFL)                       |
             |    Valerio Vitale    (Cambridge)                  |
             |    David Vanderbilt  (Rutgers University)         |
             |    Nicola Marzari    (EPFL)                       |
             |    Ivo Souza         (Universidad del Pais Vasco) |
             |    Arash A. Mostofi  (Imperial College London)    |
             |    Jonathan R. Yates (University of Oxford)       |
             |                                                   |
             |  For the full list of Wannier90 3.x authors,      |
             |  please check the code documentation and the      |
             |  README on the GitHub page of the code            |
             |                                                   |
             |                                                   |
             |  Please cite                                      |
             |                                                   |
             |  [ref] "Wannier90 as a community code:            |
             |        new features and applications",            |
             |        G. Pizzi et al., J. Phys. Cond. Matt. 32,  |
             |        165902 (2020).                             |
             |        http://doi.org/10.1088/1361-648X/ab51ff    |
             |                                                   |
             |  in any publications arising from the use of      |
             |  this code. For the method please cite            |
             |                                                   |
             |  [ref] "Maximally Localized Generalised Wannier   |
             |         Functions for Composite Energy Bands"     |
             |         N. Marzari and D. Vanderbilt              |
             |         Phys. Rev. B 56 12847 (1997)              |
             |                                                   |
             |  [ref] "Maximally Localized Wannier Functions     |
             |         for Entangled Energy Bands"               |
             |         I. Souza, N. Marzari and D. Vanderbilt    |
             |         Phys. Rev. B 65 035109 (2001)             |
             |                                                   |
             |                                                   |
             | Copyright (c) 1996-2020                           |
             |        The Wannier90 Developer Group and          |
             |        individual contributors                    |
             |                                                   |
             |      Release: 3.1.0        5th March    2020      |
             |                                                   |
             | This program is free software; you can            |
             | redistribute it and/or modify it under the terms  |
             | of the GNU General Public License as published by |
             | the Free Software Foundation; either version 2 of |
             | the License, or (at your option) any later version|
             |                                                   |
             | This program is distributed in the hope that it   |
             | will be useful, but WITHOUT ANY WARRANTY; without |
             | even the implied warranty of MERCHANTABILITY or   |
             | FITNESS FOR A PARTICULAR PURPOSE. See the GNU     |
             | General Public License for more details.          |
             |                                                   |
             | You should have received a copy of the GNU General|
             | Public License along with this program; if not,   |
             | write to the Free Software Foundation, Inc.,      |
             | 675 Mass Ave, Cambridge, MA 02139, USA.           |
             |                                                   |
             +---------------------------------------------------+
             |    Execution started on 29Nov2024 at 16:00:44     |
             +---------------------------------------------------+
 
 ******************************************************************************
 * -> Using CODATA 2006 constant values                                       *
 *    (http://physics.nist.gov/cuu/Constants/index.html)                      *
 * -> Using Bohr value from CODATA                                            *
 ******************************************************************************
 

 Running in parallel on  20 CPUs

 
                                    ------
                                    SYSTEM
                                    ------
 
                              Lattice Vectors (Ang)
                    a_1     8.724442   0.000000   0.000000
                    a_2     0.000000   8.724442   0.000000
                    a_3     0.000000   0.000000   8.724442
 
                   Unit Cell Volume:     664.06854  (Ang^3)
 
                        Reciprocal-Space Vectors (Ang^-1)
                    b_1     0.720182   0.000000   0.000000
                    b_2     0.000000   0.720182   0.000000
                    b_3     0.000000   0.000000   0.720182
  
 *----------------------------------------------------------------------------*
 |   Site       Fractional Coordinate          Cartesian Coordinate (Ang)     |
 +----------------------------------------------------------------------------+
 | Ba   1   0.25000   0.25000   0.25000   |    2.18111   2.18111   2.18111    |
 | Ba   2   0.25000   0.25000   0.75000   |    2.18111   2.18111   6.54333    |
 | Ba   3   0.25000   0.75000   0.25000   |    2.18111   6.54333   2.18111    |
 | Ba   4   0.25000   0.75000   0.75000   |    2.18111   6.54333   6.54333    |
 | Ba   5   0.75000   0.25000   0.25000   |    6.54333   2.18111   2.18111    |
 | Ba   6   0.75000   0.25000   0.75000   |    6.54333   2.18111   6.54333    |
 | Ba   7   0.75000   0.75000   0.25000   |    6.54333   6.54333   2.18111    |
 | Ba   8   0.75000   0.75000   0.75000   |    6.54333   6.54333   6.54333    |
 | Bi   1   0.00000   0.00000   0.00000   |    0.00000   0.00000   0.00000    |
 | Pb   1   0.50000   0.50000   0.50000   |    4.36222   4.36222   4.36222    |
 | Pb   2   0.00000   0.00000   0.50000   |    0.00000   0.00000   4.36222    |
 | Pb   3   0.00000   0.50000   0.00000   |    0.00000   4.36222   0.00000    |
 | Pb   4   0.00000   0.50000   0.50000   |    0.00000   4.36222   4.36222    |
 | Pb   5   0.50000   0.00000   0.00000   |    4.36222   0.00000   0.00000    |
 | Pb   6   0.50000   0.00000   0.50000   |    4.36222   0.00000   4.36222    |
 | Pb   7   0.50000   0.50000   0.00000   |    4.36222   4.36222   0.00000    |
 | O    1   0.00000   0.25000   0.00000   |    0.00000   2.18111   0.00000    |
 | O    2   0.00000   0.25000   0.50000   |    0.00000   2.18111   4.36222    |
 | O    3   0.00000   0.75000   0.00000   |    0.00000   6.54333   0.00000    |
 | O    4   0.00000   0.75000   0.50000   |    0.00000   6.54333   4.36222    |
 | O    5   0.50000   0.25000   0.00000   |    4.36222   2.18111   0.00000    |
 | O    6   0.50000   0.25000   0.50000   |    4.36222   2.18111   4.36222    |
 | O    7   0.50000   0.75000   0.00000   |    4.36222   6.54333   0.00000    |
 | O    8   0.50000   0.75000   0.50000   |    4.36222   6.54333   4.36222    |
 | O    9   0.00000   0.00000   0.25000   |    0.00000   0.00000   2.18111    |
 | O   10   0.00000   0.00000   0.75000   |    0.00000   0.00000   6.54333    |
 | O   11   0.00000   0.50000   0.25000   |    0.00000   4.36222   2.18111    |
 | O   12   0.00000   0.50000   0.75000   |    0.00000   4.36222   6.54333    |
 | O   13   0.50000   0.00000   0.25000   |    4.36222   0.00000   2.18111    |
 | O   14   0.50000   0.00000   0.75000   |    4.36222   0.00000   6.54333    |
 | O   15   0.50000   0.50000   0.25000   |    4.36222   4.36222   2.18111    |
 | O   16   0.50000   0.50000   0.75000   |    4.36222   4.36222   6.54333    |
 | O   17   0.25000   0.00000   0.00000   |    2.18111   0.00000   0.00000    |
 | O   18   0.25000   0.00000   0.50000   |    2.18111   0.00000   4.36222    |
 | O   19   0.25000   0.50000   0.00000   |    2.18111   4.36222   0.00000    |
 | O   20   0.25000   0.50000   0.50000   |    2.18111   4.36222   4.36222    |
 | O   21   0.75000   0.00000   0.00000   |    6.54333   0.00000   0.00000    |
 | O   22   0.75000   0.00000   0.50000   |    6.54333   0.00000   4.36222    |
 | O   23   0.75000   0.50000   0.00000   |    6.54333   4.36222   0.00000    |
 | O   24   0.75000   0.50000   0.50000   |    6.54333   4.36222   4.36222    |
 *----------------------------------------------------------------------------*
  
  
 *-------------------------------- POSTW90 -----------------------------------*
 |  Number of Wannier Functions               :               160             |
 |  Number of electrons per state             :                 1             |
 |  Scissor shift applied to conduction bands :             0.000             |
 |  Number of valence bands                   :       not defined             |
 |  Fermi energy (eV)                         :             9.545             |
 |  Output verbosity (1=low, 5=high)          :                 1             |
 |  Timing Level (1=low, 5=high)              :                 1             |
 |  Optimisation (0=memory, 3=speed)          :                 3             |
 |  Length Unit                               :               Ang             |
 *----------------------------------------------------------------------------*
 *------------------------ Global Smearing Parameters ------------------------*
 |  Adaptive width smearing                   :                 T             |
 |  Adaptive smearing factor                  :             1.414             |
 |  Maximum allowed smearing width (eV)       :             1.000             |
 |  Smearing Function                                             Gaussian    |
 |  Global interpolation k-points defined     :                 F             |
 *----------------------------------------------------------------------------*
 *----------------------------------------------------------------------------*
 *--------------------------------- KPATH ------------------------------------*
 |  Plot Properties along a path in k-space   :                 T             |
 |  Divisions along first kpath section       :               400             |
 |  Plot energy bands                         :                 T             |
 |  Plot Berry curvature                      :                 F             |
 |  Plot orbital magnetisation contribution   :                 F             |
 |  Plot spin Hall conductivity contribution  :                 T             |
 |  Property used to colour code the bands    :               shc             |
 *----------------------------------------------------------------------------*
 |   K-space path sections:                                                   |
 |    From:  G    0.000  0.000  0.000     To:  X    0.000  0.500  0.000       |
 |    From:  X    0.000  0.500  0.000     To:  M    0.500  0.500  0.000       |
 |    From:  M    0.500  0.500  0.000     To:  R    0.500  0.500  0.500       |
 |    From:  R    0.500  0.500  0.500     To:  G    0.000  0.000  0.000       |
 |    From:  G    0.000  0.000  0.000     To:  M    0.500  0.500  0.000       |
 *----------------------------------------------------------------------------*
 Time to read parameters        0.068 (sec)

 *---------------------------------- K-MESH ----------------------------------*
 +----------------------------------------------------------------------------+
 |                    Distance to Nearest-Neighbour Shells                    |
 |                    ------------------------------------                    |
 |          Shell             Distance (Ang^-1)          Multiplicity         |
 |          -----             -----------------          ------------         |
 |             1                   0.180045                      6            |
 |             2                   0.254623                     12            |
 |             3                   0.311848                      8            |
 |             4                   0.360091                      6            |
 |             5                   0.402594                     24            |
 |             6                   0.441020                     24            |
 |             7                   0.509246                     12            |
 |             8                   0.540136                     30            |
 |             9                   0.569354                     24            |
 |            10                   0.597143                     24            |
 |            11                   0.623696                      8            |
 |            12                   0.649163                     24            |
 |            13                   0.673669                     48            |
 |            14                   0.720182                      6            |
 |            15                   0.742347                     48            |
 |            16                   0.763868                     36            |
 |            17                   0.784800                     24            |
 |            18                   0.805188                     24            |
 |            19                   0.825072                     48            |
 |            20                   0.844488                     24            |
 |            21                   0.882039                     24            |
 |            22                   0.900227                     30            |
 |            23                   0.918055                     72            |
 |            24                   0.935544                     32            |
 |            25                   0.969575                     72            |
 |            26                   0.986150                     48            |
 |            27                   1.018491                     12            |
 |            28                   1.034283                     48            |
 |            29                   1.049837                     48            |
 |            30                   1.065163                     48            |
 |            31                   1.080273                     30            |
 |            32                   1.095174                     24            |
 |            33                   1.109875                     72            |
 |            34                   1.138708                     24            |
 |            35                   1.152854                     96            |
 |            36                   1.166828                     48            |
 +----------------------------------------------------------------------------+
 | The b-vectors are chosen automatically                                     |
 | The following shells are used:   1                                         |
 +----------------------------------------------------------------------------+
 |                        Shell   # Nearest-Neighbours                        |
 |                        -----   --------------------                        |
 |                          1               6                                 |
 +----------------------------------------------------------------------------+
 | Completeness relation is fully satisfied [Eq. (B1), PRB 56, 12847 (1997)]  |
 +----------------------------------------------------------------------------+
 |                  b_k Vectors (Ang^-1) and Weights (Ang^2)                  |
 |                  ----------------------------------------                  |
 |            No.         b_k(x)      b_k(y)      b_k(z)        w_b           |
 |            ---        --------------------------------     --------        |
 |             1         0.000000    0.000000    0.180045    15.424302        |
 |             2         0.000000    0.180045    0.000000    15.424302        |
 |             3         0.180045    0.000000    0.000000    15.424302        |
 |             4         0.000000    0.000000   -0.180045    15.424302        |
 |             5         0.000000   -0.180045    0.000000    15.424302        |
 |             6        -0.180045    0.000000    0.000000    15.424302        |
 +----------------------------------------------------------------------------+
 |                           b_k Directions (Ang^-1)                          |
 |                           -----------------------                          |
 |            No.           x           y           z                         |
 |            ---        --------------------------------                     |
 |             1         0.000000    0.000000    0.180045                     |
 |             2         0.000000    0.180045    0.000000                     |
 |             3         0.180045    0.000000    0.000000                     |
 +----------------------------------------------------------------------------+
  
 Time to get kmesh              0.033 (sec)
 Reading restart information from file BPBO.chk :
 written on 29Nov2024 at 15:58:08 ... done


 Time to read and process       2.366 (sec)


 Properties calculated in module  k p a t h
 ------------------------------------------

   * Energy bands in eV, coloured by SHC

   * Berry curvature-like term for spin Hall conductivity in Ang^2

 Reading overlaps from BPBO.mmn in get_AA_R   :  Created on 27Nov2024 at 14:18:36

 Reading spin matrices from BPBO.spn in get_SS_R : Created on 29Nov2024 at 12:35:41
 
             +---------------------------------------------------+
             |                                                   |
             |                   WANNIER90                       |
             |                                                   |
             +---------------------------------------------------+
             |                                                   |
             |        Welcome to the Maximally-Localized         |
             |        Generalized Wannier Functions code         |
             |            http://www.wannier.org                 |
             |                                                   |
             |                                                   |
             |  Wannier90 Developer Group:                       |
             |    Giovanni Pizzi    (EPFL)                       |
             |    Valerio Vitale    (Cambridge)                  |
             |    David Vanderbilt  (Rutgers University)         |
             |    Nicola Marzari    (EPFL)                       |
             |    Ivo Souza         (Universidad del Pais Vasco) |
             |    Arash A. Mostofi  (Imperial College London)    |
             |    Jonathan R. Yates (University of Oxford)       |
             |                                                   |
             |  For the full list of Wannier90 3.x authors,      |
             |  please check the code documentation and the      |
             |  README on the GitHub page of the code            |
             |                                                   |
             |                                                   |
             |  Please cite                                      |
             |                                                   |
             |  [ref] "Wannier90 as a community code:            |
             |        new features and applications",            |
             |        G. Pizzi et al., J. Phys. Cond. Matt. 32,  |
             |        165902 (2020).                             |
             |        http://doi.org/10.1088/1361-648X/ab51ff    |
             |                                                   |
             |  in any publications arising from the use of      |
             |  this code. For the method please cite            |
             |                                                   |
             |  [ref] "Maximally Localized Generalised Wannier   |
             |         Functions for Composite Energy Bands"     |
             |         N. Marzari and D. Vanderbilt              |
             |         Phys. Rev. B 56 12847 (1997)              |
             |                                                   |
             |  [ref] "Maximally Localized Wannier Functions     |
             |         for Entangled Energy Bands"               |
             |         I. Souza, N. Marzari and D. Vanderbilt    |
             |         Phys. Rev. B 65 035109 (2001)             |
             |                                                   |
             |                                                   |
             | Copyright (c) 1996-2020                           |
             |        The Wannier90 Developer Group and          |
             |        individual contributors                    |
             |                                                   |
             |      Release: 3.1.0        5th March    2020      |
             |                                                   |
             | This program is free software; you can            |
             | redistribute it and/or modify it under the terms  |
             | of the GNU General Public License as published by |
             | the Free Software Foundation; either version 2 of |
             | the License, or (at your option) any later version|
             |                                                   |
             | This program is distributed in the hope that it   |
             | will be useful, but WITHOUT ANY WARRANTY; without |
             | even the implied warranty of MERCHANTABILITY or   |
             | FITNESS FOR A PARTICULAR PURPOSE. See the GNU     |
             | General Public License for more details.          |
             |                                                   |
             | You should have received a copy of the GNU General|
             | Public License along with this program; if not,   |
             | write to the Free Software Foundation, Inc.,      |
             | 675 Mass Ave, Cambridge, MA 02139, USA.           |
             |                                                   |
             +---------------------------------------------------+
             |    Execution started on 29Nov2024 at 16:01:44     |
             +---------------------------------------------------+
 
 ******************************************************************************
 * -> Using CODATA 2006 constant values                                       *
 *    (http://physics.nist.gov/cuu/Constants/index.html)                      *
 * -> Using Bohr value from CODATA                                            *
 ******************************************************************************
 

 Running in parallel on  20 CPUs

 
                                    ------
                                    SYSTEM
                                    ------
 
                              Lattice Vectors (Ang)
                    a_1     8.724442   0.000000   0.000000
                    a_2     0.000000   8.724442   0.000000
                    a_3     0.000000   0.000000   8.724442
 
                   Unit Cell Volume:     664.06854  (Ang^3)
 
                        Reciprocal-Space Vectors (Ang^-1)
                    b_1     0.720182   0.000000   0.000000
                    b_2     0.000000   0.720182   0.000000
                    b_3     0.000000   0.000000   0.720182
  
 *----------------------------------------------------------------------------*
 |   Site       Fractional Coordinate          Cartesian Coordinate (Ang)     |
 +----------------------------------------------------------------------------+
 | Ba   1   0.25000   0.25000   0.25000   |    2.18111   2.18111   2.18111    |
 | Ba   2   0.25000   0.25000   0.75000   |    2.18111   2.18111   6.54333    |
 | Ba   3   0.25000   0.75000   0.25000   |    2.18111   6.54333   2.18111    |
 | Ba   4   0.25000   0.75000   0.75000   |    2.18111   6.54333   6.54333    |
 | Ba   5   0.75000   0.25000   0.25000   |    6.54333   2.18111   2.18111    |
 | Ba   6   0.75000   0.25000   0.75000   |    6.54333   2.18111   6.54333    |
 | Ba   7   0.75000   0.75000   0.25000   |    6.54333   6.54333   2.18111    |
 | Ba   8   0.75000   0.75000   0.75000   |    6.54333   6.54333   6.54333    |
 | Bi   1   0.00000   0.00000   0.00000   |    0.00000   0.00000   0.00000    |
 | Pb   1   0.50000   0.50000   0.50000   |    4.36222   4.36222   4.36222    |
 | Pb   2   0.00000   0.00000   0.50000   |    0.00000   0.00000   4.36222    |
 | Pb   3   0.00000   0.50000   0.00000   |    0.00000   4.36222   0.00000    |
 | Pb   4   0.00000   0.50000   0.50000   |    0.00000   4.36222   4.36222    |
 | Pb   5   0.50000   0.00000   0.00000   |    4.36222   0.00000   0.00000    |
 | Pb   6   0.50000   0.00000   0.50000   |    4.36222   0.00000   4.36222    |
 | Pb   7   0.50000   0.50000   0.00000   |    4.36222   4.36222   0.00000    |
 | O    1   0.00000   0.25000   0.00000   |    0.00000   2.18111   0.00000    |
 | O    2   0.00000   0.25000   0.50000   |    0.00000   2.18111   4.36222    |
 | O    3   0.00000   0.75000   0.00000   |    0.00000   6.54333   0.00000    |
 | O    4   0.00000   0.75000   0.50000   |    0.00000   6.54333   4.36222    |
 | O    5   0.50000   0.25000   0.00000   |    4.36222   2.18111   0.00000    |
 | O    6   0.50000   0.25000   0.50000   |    4.36222   2.18111   4.36222    |
 | O    7   0.50000   0.75000   0.00000   |    4.36222   6.54333   0.00000    |
 | O    8   0.50000   0.75000   0.50000   |    4.36222   6.54333   4.36222    |
 | O    9   0.00000   0.00000   0.25000   |    0.00000   0.00000   2.18111    |
 | O   10   0.00000   0.00000   0.75000   |    0.00000   0.00000   6.54333    |
 | O   11   0.00000   0.50000   0.25000   |    0.00000   4.36222   2.18111    |
 | O   12   0.00000   0.50000   0.75000   |    0.00000   4.36222   6.54333    |
 | O   13   0.50000   0.00000   0.25000   |    4.36222   0.00000   2.18111    |
 | O   14   0.50000   0.00000   0.75000   |    4.36222   0.00000   6.54333    |
 | O   15   0.50000   0.50000   0.25000   |    4.36222   4.36222   2.18111    |
 | O   16   0.50000   0.50000   0.75000   |    4.36222   4.36222   6.54333    |
 | O   17   0.25000   0.00000   0.00000   |    2.18111   0.00000   0.00000    |
 | O   18   0.25000   0.00000   0.50000   |    2.18111   0.00000   4.36222    |
 | O   19   0.25000   0.50000   0.00000   |    2.18111   4.36222   0.00000    |
 | O   20   0.25000   0.50000   0.50000   |    2.18111   4.36222   4.36222    |
 | O   21   0.75000   0.00000   0.00000   |    6.54333   0.00000   0.00000    |
 | O   22   0.75000   0.00000   0.50000   |    6.54333   0.00000   4.36222    |
 | O   23   0.75000   0.50000   0.00000   |    6.54333   4.36222   0.00000    |
 | O   24   0.75000   0.50000   0.50000   |    6.54333   4.36222   4.36222    |
 *----------------------------------------------------------------------------*
  
  
 *-------------------------------- POSTW90 -----------------------------------*
 |  Number of Wannier Functions               :               160             |
 |  Number of electrons per state             :                 1             |
 |  Scissor shift applied to conduction bands :             0.000             |
 |  Number of valence bands                   :       not defined             |
 |  Fermi energy (eV)                         :             9.545             |
 |  Output verbosity (1=low, 5=high)          :                 1             |
 |  Timing Level (1=low, 5=high)              :                 1             |
 |  Optimisation (0=memory, 3=speed)          :                 3             |
 |  Length Unit                               :               Ang             |
 *----------------------------------------------------------------------------*
 *------------------------ Global Smearing Parameters ------------------------*
 |  Adaptive width smearing                   :                 T             |
 |  Adaptive smearing factor                  :             1.414             |
 |  Maximum allowed smearing width (eV)       :             1.000             |
 |  Smearing Function                                             Gaussian    |
 |  Global interpolation k-points defined     :                 F             |
 *----------------------------------------------------------------------------*
 *----------------------------------------------------------------------------*
 *--------------------------------- KSLICE -----------------------------------*
 |  Plot Properties along a slice in k-space  :                 T             |
 |  Fermi level used for slice                :             9.545             |
 |  Divisions along first kpath section       :               400             |
 |  Plot energy contours (fermi lines)        :                 T             |
 |  Plot Berry curvature (sum over occ states):                 F             |
 |  Plot orbital magnetisation contribution   :                 F             |
 |  Plot spin Hall conductivity contribution  :                 T             |
 |  Property used to colour code the lines    :              none             |
 |  2D slice parameters (in reduced coordinates):                             |
 |     Corner:      0.000   0.000   0.000                                     |
 |    Vector1:      1.000   0.000   1.000            Divisions:    51         |
 |    Vector2:      0.000   1.000   0.000            Divisions:    51         |
 *----------------------------------------------------------------------------*
 Time to read parameters        0.067 (sec)

 *---------------------------------- K-MESH ----------------------------------*
 +----------------------------------------------------------------------------+
 |                    Distance to Nearest-Neighbour Shells                    |
 |                    ------------------------------------                    |
 |          Shell             Distance (Ang^-1)          Multiplicity         |
 |          -----             -----------------          ------------         |
 |             1                   0.180045                      6            |
 |             2                   0.254623                     12            |
 |             3                   0.311848                      8            |
 |             4                   0.360091                      6            |
 |             5                   0.402594                     24            |
 |             6                   0.441020                     24            |
 |             7                   0.509246                     12            |
 |             8                   0.540136                     30            |
 |             9                   0.569354                     24            |
 |            10                   0.597143                     24            |
 |            11                   0.623696                      8            |
 |            12                   0.649163                     24            |
 |            13                   0.673669                     48            |
 |            14                   0.720182                      6            |
 |            15                   0.742347                     48            |
 |            16                   0.763868                     36            |
 |            17                   0.784800                     24            |
 |            18                   0.805188                     24            |
 |            19                   0.825072                     48            |
 |            20                   0.844488                     24            |
 |            21                   0.882039                     24            |
 |            22                   0.900227                     30            |
 |            23                   0.918055                     72            |
 |            24                   0.935544                     32            |
 |            25                   0.969575                     72            |
 |            26                   0.986150                     48            |
 |            27                   1.018491                     12            |
 |            28                   1.034283                     48            |
 |            29                   1.049837                     48            |
 |            30                   1.065163                     48            |
 |            31                   1.080273                     30            |
 |            32                   1.095174                     24            |
 |            33                   1.109875                     72            |
 |            34                   1.138708                     24            |
 |            35                   1.152854                     96            |
 |            36                   1.166828                     48            |
 +----------------------------------------------------------------------------+
 | The b-vectors are chosen automatically                                     |
 | The following shells are used:   1                                         |
 +----------------------------------------------------------------------------+
 |                        Shell   # Nearest-Neighbours                        |
 |                        -----   --------------------                        |
 |                          1               6                                 |
 +----------------------------------------------------------------------------+
 | Completeness relation is fully satisfied [Eq. (B1), PRB 56, 12847 (1997)]  |
 +----------------------------------------------------------------------------+
 |                  b_k Vectors (Ang^-1) and Weights (Ang^2)                  |
 |                  ----------------------------------------                  |
 |            No.         b_k(x)      b_k(y)      b_k(z)        w_b           |
 |            ---        --------------------------------     --------        |
 |             1         0.000000    0.000000    0.180045    15.424302        |
 |             2         0.000000    0.180045    0.000000    15.424302        |
 |             3         0.180045    0.000000    0.000000    15.424302        |
 |             4         0.000000    0.000000   -0.180045    15.424302        |
 |             5         0.000000   -0.180045    0.000000    15.424302        |
 |             6        -0.180045    0.000000    0.000000    15.424302        |
 +----------------------------------------------------------------------------+
 |                           b_k Directions (Ang^-1)                          |
 |                           -----------------------                          |
 |            No.           x           y           z                         |
 |            ---        --------------------------------                     |
 |             1         0.000000    0.000000    0.180045                     |
 |             2         0.000000    0.180045    0.000000                     |
 |             3         0.180045    0.000000    0.000000                     |
 +----------------------------------------------------------------------------+
  
 Time to get kmesh              0.033 (sec)
 Reading restart information from file BPBO.chk :
 written on 29Nov2024 at 15:58:08 ... done


 Time to read and process       2.350 (sec)


 Properties calculated in module  k s l i c e
 --------------------------------------------

   * Fermi lines

       (Fermi level:     9.5447 eV)

   * Berry curvature-like term of spin Hall conductivity in Ang^2

 Reading overlaps from BPBO.mmn in get_AA_R   :  Created on 27Nov2024 at 14:18:36

 Reading spin matrices from BPBO.spn in get_SS_R : Created on 29Nov2024 at 12:35:41
 
             +---------------------------------------------------+
             |                                                   |
             |                   WANNIER90                       |
             |                                                   |
             +---------------------------------------------------+
             |                                                   |
             |        Welcome to the Maximally-Localized         |
             |        Generalized Wannier Functions code         |
             |            http://www.wannier.org                 |
             |                                                   |
             |                                                   |
             |  Wannier90 Developer Group:                       |
             |    Giovanni Pizzi    (EPFL)                       |
             |    Valerio Vitale    (Cambridge)                  |
             |    David Vanderbilt  (Rutgers University)         |
             |    Nicola Marzari    (EPFL)                       |
             |    Ivo Souza         (Universidad del Pais Vasco) |
             |    Arash A. Mostofi  (Imperial College London)    |
             |    Jonathan R. Yates (University of Oxford)       |
             |                                                   |
             |  For the full list of Wannier90 3.x authors,      |
             |  please check the code documentation and the      |
             |  README on the GitHub page of the code            |
             |                                                   |
             |                                                   |
             |  Please cite                                      |
             |                                                   |
             |  [ref] "Wannier90 as a community code:            |
             |        new features and applications",            |
             |        G. Pizzi et al., J. Phys. Cond. Matt. 32,  |
             |        165902 (2020).                             |
             |        http://doi.org/10.1088/1361-648X/ab51ff    |
             |                                                   |
             |  in any publications arising from the use of      |
             |  this code. For the method please cite            |
             |                                                   |
             |  [ref] "Maximally Localized Generalised Wannier   |
             |         Functions for Composite Energy Bands"     |
             |         N. Marzari and D. Vanderbilt              |
             |         Phys. Rev. B 56 12847 (1997)              |
             |                                                   |
             |  [ref] "Maximally Localized Wannier Functions     |
             |         for Entangled Energy Bands"               |
             |         I. Souza, N. Marzari and D. Vanderbilt    |
             |         Phys. Rev. B 65 035109 (2001)             |
             |                                                   |
             |                                                   |
             | Copyright (c) 1996-2020                           |
             |        The Wannier90 Developer Group and          |
             |        individual contributors                    |
             |                                                   |
             |      Release: 3.1.0        5th March    2020      |
             |                                                   |
             | This program is free software; you can            |
             | redistribute it and/or modify it under the terms  |
             | of the GNU General Public License as published by |
             | the Free Software Foundation; either version 2 of |
             | the License, or (at your option) any later version|
             |                                                   |
             | This program is distributed in the hope that it   |
             | will be useful, but WITHOUT ANY WARRANTY; without |
             | even the implied warranty of MERCHANTABILITY or   |
             | FITNESS FOR A PARTICULAR PURPOSE. See the GNU     |
             | General Public License for more details.          |
             |                                                   |
             | You should have received a copy of the GNU General|
             | Public License along with this program; if not,   |
             | write to the Free Software Foundation, Inc.,      |
             | 675 Mass Ave, Cambridge, MA 02139, USA.           |
             |                                                   |
             +---------------------------------------------------+
             |    Execution started on 29Nov2024 at 16:12:15     |
             +---------------------------------------------------+
 
 ******************************************************************************
 * -> Using CODATA 2006 constant values                                       *
 *    (http://physics.nist.gov/cuu/Constants/index.html)                      *
 * -> Using Bohr value from CODATA                                            *
 ******************************************************************************
 

 Running in parallel on  20 CPUs

 
                                    ------
                                    SYSTEM
                                    ------
 
                              Lattice Vectors (Ang)
                    a_1     8.724442   0.000000   0.000000
                    a_2     0.000000   8.724442   0.000000
                    a_3     0.000000   0.000000   8.724442
 
                   Unit Cell Volume:     664.06854  (Ang^3)
 
                        Reciprocal-Space Vectors (Ang^-1)
                    b_1     0.720182   0.000000   0.000000
                    b_2     0.000000   0.720182   0.000000
                    b_3     0.000000   0.000000   0.720182
  
 *----------------------------------------------------------------------------*
 |   Site       Fractional Coordinate          Cartesian Coordinate (Ang)     |
 +----------------------------------------------------------------------------+
 | Ba   1   0.25000   0.25000   0.25000   |    2.18111   2.18111   2.18111    |
 | Ba   2   0.25000   0.25000   0.75000   |    2.18111   2.18111   6.54333    |
 | Ba   3   0.25000   0.75000   0.25000   |    2.18111   6.54333   2.18111    |
 | Ba   4   0.25000   0.75000   0.75000   |    2.18111   6.54333   6.54333    |
 | Ba   5   0.75000   0.25000   0.25000   |    6.54333   2.18111   2.18111    |
 | Ba   6   0.75000   0.25000   0.75000   |    6.54333   2.18111   6.54333    |
 | Ba   7   0.75000   0.75000   0.25000   |    6.54333   6.54333   2.18111    |
 | Ba   8   0.75000   0.75000   0.75000   |    6.54333   6.54333   6.54333    |
 | Bi   1   0.00000   0.00000   0.00000   |    0.00000   0.00000   0.00000    |
 | Pb   1   0.50000   0.50000   0.50000   |    4.36222   4.36222   4.36222    |
 | Pb   2   0.00000   0.00000   0.50000   |    0.00000   0.00000   4.36222    |
 | Pb   3   0.00000   0.50000   0.00000   |    0.00000   4.36222   0.00000    |
 | Pb   4   0.00000   0.50000   0.50000   |    0.00000   4.36222   4.36222    |
 | Pb   5   0.50000   0.00000   0.00000   |    4.36222   0.00000   0.00000    |
 | Pb   6   0.50000   0.00000   0.50000   |    4.36222   0.00000   4.36222    |
 | Pb   7   0.50000   0.50000   0.00000   |    4.36222   4.36222   0.00000    |
 | O    1   0.00000   0.25000   0.00000   |    0.00000   2.18111   0.00000    |
 | O    2   0.00000   0.25000   0.50000   |    0.00000   2.18111   4.36222    |
 | O    3   0.00000   0.75000   0.00000   |    0.00000   6.54333   0.00000    |
 | O    4   0.00000   0.75000   0.50000   |    0.00000   6.54333   4.36222    |
 | O    5   0.50000   0.25000   0.00000   |    4.36222   2.18111   0.00000    |
 | O    6   0.50000   0.25000   0.50000   |    4.36222   2.18111   4.36222    |
 | O    7   0.50000   0.75000   0.00000   |    4.36222   6.54333   0.00000    |
 | O    8   0.50000   0.75000   0.50000   |    4.36222   6.54333   4.36222    |
 | O    9   0.00000   0.00000   0.25000   |    0.00000   0.00000   2.18111    |
 | O   10   0.00000   0.00000   0.75000   |    0.00000   0.00000   6.54333    |
 | O   11   0.00000   0.50000   0.25000   |    0.00000   4.36222   2.18111    |
[...]
             |  Wannier90 Developer Group:                       |
             |    Giovanni Pizzi    (EPFL)                       |
             |    Valerio Vitale    (Cambridge)                  |
             |    David Vanderbilt  (Rutgers University)         |
             |    Nicola Marzari    (EPFL)                       |
             |    Ivo Souza         (Universidad del Pais Vasco) |
             |    Arash A. Mostofi  (Imperial College London)    |
             |    Jonathan R. Yates (University of Oxford)       |
             |                                                   |
             |  For the full list of Wannier90 3.x authors,      |
             |  please check the code documentation and the      |
             |  README on the GitHub page of the code            |
             |                                                   |
             |                                                   |
             |  Please cite                                      |
             |                                                   |
             |  [ref] "Wannier90 as a community code:            |
             |        new features and applications",            |
             |        G. Pizzi et al., J. Phys. Cond. Matt. 32,  |
             |        165902 (2020).                             |
             |        http://doi.org/10.1088/1361-648X/ab51ff    |
             |                                                   |
             |  in any publications arising from the use of      |
             |  this code. For the method please cite            |
             |                                                   |
             |  [ref] "Maximally Localized Generalised Wannier   |
             |         Functions for Composite Energy Bands"     |
             |         N. Marzari and D. Vanderbilt              |
             |         Phys. Rev. B 56 12847 (1997)              |
             |                                                   |
             |  [ref] "Maximally Localized Wannier Functions     |
             |         for Entangled Energy Bands"               |
             |         I. Souza, N. Marzari and D. Vanderbilt    |
             |         Phys. Rev. B 65 035109 (2001)             |
             |                                                   |
             |                                                   |
             | Copyright (c) 1996-2020                           |
             |        The Wannier90 Developer Group and          |
             |        individual contributors                    |
             |                                                   |
             |      Release: 3.1.0        5th March    2020      |
             |                                                   |
             | This program is free software; you can            |
             | redistribute it and/or modify it under the terms  |
             | of the GNU General Public License as published by |
             | the Free Software Foundation; either version 2 of |
             | the License, or (at your option) any later version|
             |                                                   |
             | This program is distributed in the hope that it   |
             | will be useful, but WITHOUT ANY WARRANTY; without |
             | even the implied warranty of MERCHANTABILITY or   |
             | FITNESS FOR A PARTICULAR PURPOSE. See the GNU     |
             | General Public License for more details.          |
             |                                                   |
             | You should have received a copy of the GNU General|
             | Public License along with this program; if not,   |
             | write to the Free Software Foundation, Inc.,      |
             | 675 Mass Ave, Cambridge, MA 02139, USA.           |
             |                                                   |
             +---------------------------------------------------+
             |    Execution started on 10Jun2025 at 13:32:51     |
             +---------------------------------------------------+
 
 ******************************************************************************
 * -> Using CODATA 2006 constant values                                       *
 *    (http://physics.nist.gov/cuu/Constants/index.html)                      *
 * -> Using Bohr value from CODATA                                            *
 ******************************************************************************
 

 Running in parallel on  36 CPUs


                                    ------
                                    SYSTEM
                                    ------

                              Lattice Vectors (Ang)
                    a_1     8.743356   0.000000   0.000000
                    a_2     0.000000   8.743356   0.000000
                    a_3     0.000000   0.000000   8.743356

                   Unit Cell Volume:     668.39691  (Ang^3)

                        Reciprocal-Space Vectors (Ang^-1)
                    b_1     0.718624   0.000000   0.000000
                    b_2     0.000000   0.718624   0.000000
                    b_3     0.000000   0.000000   0.718624
  
 *----------------------------------------------------------------------------*
 |   Site       Fractional Coordinate          Cartesian Coordinate (Ang)     |
 +----------------------------------------------------------------------------+
 | Ba   1   0.25000   0.25000   0.25000   |    2.18584   2.18584   2.18584    |
 | Ba   2   0.25000   0.25000   0.75000   |    2.18584   2.18584   6.55752    |
 | Ba   3   0.25000   0.75000   0.25000   |    2.18584   6.55752   2.18584    |
 | Ba   4   0.25000   0.75000   0.75000   |    2.18584   6.55752   6.55752    |
 | Ba   5   0.75000   0.25000   0.25000   |    6.55752   2.18584   2.18584    |
 | Ba   6   0.75000   0.25000   0.75000   |    6.55752   2.18584   6.55752    |
 | Ba   7   0.75000   0.75000   0.25000   |    6.55752   6.55752   2.18584    |
 | Ba   8   0.75000   0.75000   0.75000   |    6.55752   6.55752   6.55752    |
 | Bi   1   0.00000   0.00000   0.00000   |    0.00000   0.00000   0.00000    |
 | Pb   1   0.50000   0.50000   0.50000   |    4.37168   4.37168   4.37168    |
 | Pb   2   0.00000   0.00000   0.50000   |    0.00000   0.00000   4.37168    |
 | Pb   3   0.00000   0.50000   0.00000   |    0.00000   4.37168   0.00000    |
 | Pb   4   0.00000   0.50000   0.50000   |    0.00000   4.37168   4.37168    |
 | Pb   5   0.50000   0.00000   0.00000   |    4.37168   0.00000   0.00000    |
 | Pb   6   0.50000   0.00000   0.50000   |    4.37168   0.00000   4.37168    |
 | Pb   7   0.50000   0.50000   0.00000   |    4.37168   4.37168   0.00000    |
 | O    1   0.00000   0.25000   0.00000   |    0.00000   2.18584   0.00000    |
 | O    2   0.00000   0.25000   0.50000   |    0.00000   2.18584   4.37168    |
 | O    3   0.00000   0.75000   0.00000   |    0.00000   6.55752   0.00000    |
 | O    4   0.00000   0.75000   0.50000   |    0.00000   6.55752   4.37168    |
 | O    5   0.50000   0.25000   0.00000   |    4.37168   2.18584   0.00000    |
 | O    6   0.50000   0.25000   0.50000   |    4.37168   2.18584   4.37168    |
 | O    7   0.50000   0.75000   0.00000   |    4.37168   6.55752   0.00000    |
 | O    8   0.50000   0.75000   0.50000   |    4.37168   6.55752   4.37168    |
 | O    9   0.00000   0.00000   0.25000   |    0.00000   0.00000   2.18584    |
 | O   10   0.00000   0.00000   0.75000   |    0.00000   0.00000   6.55752    |
 | O   11   0.00000   0.50000   0.25000   |    0.00000   4.37168   2.18584    |
 | O   12   0.00000   0.50000   0.75000   |    0.00000   4.37168   6.55752    |
 | O   13   0.50000   0.00000   0.25000   |    4.37168   0.00000   2.18584    |
 | O   14   0.50000   0.00000   0.75000   |    4.37168   0.00000   6.55752    |
 | O   15   0.50000   0.50000   0.25000   |    4.37168   4.37168   2.18584    |
 | O   16   0.50000   0.50000   0.75000   |    4.37168   4.37168   6.55752    |
 | O   17   0.25000   0.00000   0.00000   |    2.18584   0.00000   0.00000    |
 | O   18   0.25000   0.00000   0.50000   |    2.18584   0.00000   4.37168    |
 | O   19   0.25000   0.50000   0.00000   |    2.18584   4.37168   0.00000    |
 | O   20   0.25000   0.50000   0.50000   |    2.18584   4.37168   4.37168    |
 | O   21   0.75000   0.00000   0.00000   |    6.55752   0.00000   0.00000    |
 | O   22   0.75000   0.00000   0.50000   |    6.55752   0.00000   4.37168    |
 | O   23   0.75000   0.50000   0.00000   |    6.55752   4.37168   0.00000    |
 | O   24   0.75000   0.50000   0.50000   |    6.55752   4.37168   4.37168    |
 *----------------------------------------------------------------------------*
  
  
 *-------------------------------- POSTW90 -----------------------------------*
 |  Number of Wannier Functions               :               160             |
 |  Number of electrons per state             :                 1             |
 |  Scissor shift applied to conduction bands :             0.000             |
 |  Number of valence bands                   :       not defined             |
 |  Fermi energy     :      41 steps from    7.927 to    9.927 eV             |
 |  Output verbosity (1=low, 5=high)          :                 1             |
 |  Timing Level (1=low, 5=high)              :                 1             |
 |  Optimisation (0=memory, 3=speed)          :                 3             |
 |  Length Unit                               :               Ang             |
 *----------------------------------------------------------------------------*
 *------------------------ Global Smearing Parameters ------------------------*
 |  Adaptive width smearing                   :                 T             |
 |  Adaptive smearing factor                  :             1.414             |
 |  Maximum allowed smearing width (eV)       :             1.000             |
 |  Smearing Function                                             Gaussian    |
 |  Global interpolation k-points defined     :                 T             |
 |  Grid size                                 :    50 x  50 x  50             |
 *----------------------------------------------------------------------------*
 *----------------------------------------------------------------------------*
 *------------------------------- BOLTZWANN ----------------------------------*
 |  Compute Boltzmann transport properties    :                 T             |
 |  3d Structure                              :                 T             |
 |  Relaxation Time (fs)                      :            10.000             |
 |  Minimum Value of Chemical Potential (eV)  :             7.927             |
 |  Maximum Value of Chemical Potential (eV)  :             9.927             |
 |  Step size for Chemical Potential (eV)     :             0.050             |
 |  Minimum Value of Temperature (K)          :             0.010             |
 |  Maximum Value of Temperature (K)          :           301.010             |
 |  Step size for Temperature (K)             :            50.000             |
 |  Using global k-point set for interpolation                                |
 |  Step size for TDF (eV)                    :             0.001             |
 |  TDF Smearing Function                                         Gaussian    |
 |  TDF fixed Smearing width                  :         unsmeared             |
 |  Compute DOS at same time                  :                 T             |
 *----------------------------------------------------------------------------*
 Time to read parameters        0.089 (sec)

 *---------------------------------- K-MESH ----------------------------------*
 +----------------------------------------------------------------------------+
 |                    Distance to Nearest-Neighbour Shells                    |
 |                    ------------------------------------                    |
 |          Shell             Distance (Ang^-1)          Multiplicity         |
 |          -----             -----------------          ------------         |
 |             1                   0.179656                      6            |
 |             2                   0.254072                     12            |
 |             3                   0.311173                      8            |
 |             4                   0.359312                      6            |
 |             5                   0.401723                     24            |
 |             6                   0.440066                     24            |
 |             7                   0.508144                     12            |
 |             8                   0.538968                     30            |
 |             9                   0.568122                     24            |
 |            10                   0.595852                     24            |
 |            11                   0.622347                      8            |
 |            12                   0.647759                     24            |
 |            13                   0.672211                     48            |
 |            14                   0.718624                      6            |
 |            15                   0.740741                     48            |
 |            16                   0.762216                     36            |
 |            17                   0.783102                     24            |
 |            18                   0.803446                     24            |
 |            19                   0.823287                     48            |
 |            20                   0.842661                     24            |
 |            21                   0.880131                     24            |
 |            22                   0.898280                     30            |
 |            23                   0.916069                     72            |
 |            24                   0.933520                     32            |
 |            25                   0.967477                     72            |
 |            26                   0.984016                     48            |
 |            27                   1.016288                     12            |
 |            28                   1.032045                     48            |
 |            29                   1.047566                     48            |
 |            30                   1.062859                     48            |
 |            31                   1.077936                     30            |
 |            32                   1.092805                     24            |
 |            33                   1.107474                     72            |
 |            34                   1.136244                     24            |
 |            35                   1.150360                     96            |
 |            36                   1.164304                     48            |
 +----------------------------------------------------------------------------+
 | The b-vectors are chosen automatically                                     |
 | The following shells are used:   1                                         |
 +----------------------------------------------------------------------------+
 |                        Shell   # Nearest-Neighbours                        |
 |                        -----   --------------------                        |
 |                          1               6                                 |
 +----------------------------------------------------------------------------+
 | Completeness relation is fully satisfied [Eq. (B1), PRB 56, 12847 (1997)]  |
 +----------------------------------------------------------------------------+
 |                  b_k Vectors (Ang^-1) and Weights (Ang^2)                  |
 |                  ----------------------------------------                  |
 |            No.         b_k(x)      b_k(y)      b_k(z)        w_b           |
 |            ---        --------------------------------     --------        |
 |             1         0.000000    0.000000    0.179656    15.491253        |
 |             2         0.000000    0.179656    0.000000    15.491253        |
 |             3         0.179656    0.000000    0.000000    15.491253        |
 |             4         0.000000    0.000000   -0.179656    15.491253        |
 |             5         0.000000   -0.179656    0.000000    15.491253        |
 |             6        -0.179656    0.000000    0.000000    15.491253        |
 +----------------------------------------------------------------------------+
 |                           b_k Directions (Ang^-1)                          |
 |                           -----------------------                          |
 |            No.           x           y           z                         |
 |            ---        --------------------------------                     |
 |             1         0.000000    0.000000    0.179656                     |
 |             2         0.000000    0.179656    0.000000                     |
 |             3         0.179656    0.000000    0.000000                     |
 +----------------------------------------------------------------------------+
  
 Time to get kmesh              0.030 (sec)
 Reading restart information from file BPBO.chk :
 written on 10Feb2025 at 17:54:51 ... done


 Time to read and process       2.785 (sec)

 *---------------------------------------------------------------------------*
 |                   Boltzmann Transport (BoltzWann module)                  |
 *---------------------------------------------------------------------------*
 | Please cite the following paper when publishing results obtained using    |
 | the BoltzWann module:                                                     |
 | G. Pizzi, D. Volja, B. Kozinsky, M. Fornari, and N. Marzari,              |
 | Comp. Phys. Comm. 185, 422 (2014); DOI:10.1016/j.cpc.2013.09.015          |
 *---------------------------------------------------------------------------*

   Calculating Transport Distribution function (TDF) and DOS...
     k-grid used for band interpolation in BoltzWann: 50x50x50
     Number of electrons per state: 1
     Relaxation time (fs):    10.00000000    
   TDF and DOS calculated.

 > WARNING! There are 41 (mu,T) pairs for which the electrical
 >          conductivity has zero determinant.
 >          Seebeck coefficient set to zero for those pairs.
 >          Check if this is physical or not.
 >          (If you are dealing with a 2D system, set the boltz_2d_dir flag.)
 
   Transport properties calculated.

 *---------------------------------------------------------------------------*
 |                        End of the BoltzWann module                        |
 *---------------------------------------------------------------------------*


 Time for BoltzWann (Boltzmann transport)    3241.934 (sec)

 Total Execution Time        3244.840 (sec)

 *===========================================================================*
 |                             TIMING INFORMATION                            |
 *===========================================================================*
 |    Tag                                                Ncalls      Time (s)|
 |---------------------------------------------------------------------------|
 |kmesh: get                                        :         1         0.030|
 |boltzwann_main                                    :         1      3241.934|
 |calcTDF                                           :         1      3241.869|
 |boltzwann_main: calc_props                        :         1         0.005|
 *---------------------------------------------------------------------------*


 All done: postw90 exiting
