
     Program PWSCF v.7.3.1 starts on 23Jun2025 at  6:21:28 

     This program is part of the open-source Quantum ESPRESSO suite
     for quantum simulation of materials; please cite
         "P. Giannozzi et al., J. Phys.:Condens. Matter 21 395502 (2009);
         "P. Giannozzi et al., J. Phys.:Condens. Matter 29 465901 (2017);
         "P. Giannozzi et al., J. Chem. Phys. 152 154105 (2020);
          URL http://www.quantum-espresso.org", 
     in publications or presentations arising from this work. More details at
     http://www.quantum-espresso.org/quote

     Parallel version (MPI & OpenMP), running on      80 processor cores
     Number of MPI processes:                40
     Threads/MPI process:                     2

     MPI processes distributed on    20 nodes
     7284 MiB available memory on the printing compute node when the environment starts

     Reading input from BPBO.nscf.proj.in

     Current dimensions of program PWSCF are:
     Max number of different atomic species (ntypx) = 10
     Max number of k-points (npk) =  40000
     Max angular momentum in pseudopotentials (lmaxx) =  4
     file Ba.rel-pbe-spn-rrkjus_psl.1.0.0.UPF: wavefunction(s)  5S 6S renormalized
     file Pb.rel-pbe-dn-rrkjus_psl.1.0.0.UPF: wavefunction(s)  6S 5D 5D renormalized
     file Bi.rel-pbe-dn-rrkjus_psl.1.0.0.UPF: wavefunction(s)  5D 5D renormalized

     Atomic positions and unit cell read from directory:
     ./out/bpbo.save/

     Message from routine setup:
     using ibrav=0 with symmetry is DISCOURAGED, use correct ibrav instead

     K-points division:     npool     =      20
     R & G space division:  proc/nbgrp/npool/nimage =       2
     Subspace diagonalization in iterative solution of the eigenvalue problem:
     a serial algorithm will be used

     Message from routine divide_et_impera:
     suboptimal parallelization: some nodes have no k-points

     Parallelization info
     --------------------
     sticks:   dense  smooth     PW     G-vecs:    dense   smooth      PW
     Min        6526    3262    878               559942   197951   27732
     Max        6527    3263    879               559943   197952   27735
     Sum       13053    6525   1757              1119885   395903   55467

     Using Slab Decomposition



     bravais-lattice index     =            0
     lattice parameter (alat)  =      16.5225  a.u.
     unit-cell volume          =    4510.5659 (a.u.)^3
     number of atoms/cell      =           40
     number of atomic types    =            4
     number of electrons       =       337.00
     number of Kohn-Sham states=          432
     kinetic-energy cutoff     =      75.0000  Ry
     charge density cutoff     =     600.0000  Ry
     Exchange-correlation= PBE
                           (   1   4   3   4   0   0   0)
     Non magnetic calculation with spin-orbit


     celldm(1)=  16.486805  celldm(2)=   0.000000  celldm(3)=   0.000000
     celldm(4)=   0.000000  celldm(5)=   0.000000  celldm(6)=   0.000000

     crystal axes: (cart. coord. in units of alat)
               a(1) = (   1.000000   0.000000   0.000000 )  
               a(2) = (   0.000000   1.000000   0.000000 )  
               a(3) = (   0.000000   0.000000   1.000000 )  

     reciprocal axes: (cart. coord. in units 2 pi/alat)
               b(1) = (  1.000000  0.000000  0.000000 )  
               b(2) = (  0.000000  1.000000  0.000000 )  
               b(3) = (  0.000000  0.000000  1.000000 )  


     PseudoPot. # 1 for Ba read from file:
     ./pseudo/Ba.rel-pbe-spn-rrkjus_psl.1.0.0.UPF
     MD5 check sum: 94cfde5357c22a4bf03ae8062d9f9c82
     Pseudo is Ultrasoft + core correction, Zval = 10.0
     Generated using &quot;atomic&quot; code by A. Dal Corso  v.6.2.2
     Using radial grid of 1251 points, 11 beta functions with: 
                l(1) =   0
                l(2) =   0
                l(3) =   0
                l(4) =   1
                l(5) =   1
                l(6) =   1
                l(7) =   1
                l(8) =   2
                l(9) =   2
               l(10) =   2
               l(11) =   2
     Q(r) pseudized with 0 coefficients 


     PseudoPot. # 2 for O  read from file:
     ./pseudo/O.rel-pbe-n-rrkjus_psl.1.0.0.UPF
     MD5 check sum: 7bb44c19b4019dea92d8afd4a1c1ae3f
     Pseudo is Ultrasoft + core correction, Zval =  6.0
     Generated using &quot;atomic&quot; code by A. Dal Corso  v.6.3MaX
     Using radial grid of 1095 points,  6 beta functions with: 
                l(1) =   0
                l(2) =   0
                l(3) =   1
                l(4) =   1
                l(5) =   1
                l(6) =   1
     Q(r) pseudized with 0 coefficients 


     PseudoPot. # 3 for Pb read from file:
     ./pseudo/Pb.rel-pbe-dn-rrkjus_psl.1.0.0.UPF
     MD5 check sum: e88f3c92f89adaff2c2c587a7f90e9c0
     Pseudo is Ultrasoft + core correction, Zval = 14.0
     Generated using &quot;atomic&quot; code by A. Dal Corso  v.6.3
     Using radial grid of 1281 points, 10 beta functions with: 
                l(1) =   0
                l(2) =   0
                l(3) =   1
                l(4) =   1
                l(5) =   1
                l(6) =   1
                l(7) =   2
                l(8) =   2
                l(9) =   2
               l(10) =   2
     Q(r) pseudized with 0 coefficients 


     PseudoPot. # 4 for Bi read from file:
     ./pseudo/Bi.rel-pbe-dn-rrkjus_psl.1.0.0.UPF
     MD5 check sum: 0357e51b97995f252f8888940afc4c39
     Pseudo is Ultrasoft + core correction, Zval = 15.0
     Generated using &quot;atomic&quot; code by A. Dal Corso  v.6.2.2
     Using radial grid of 1283 points, 10 beta functions with: 
                l(1) =   0
                l(2) =   0
                l(3) =   1
                l(4) =   1
                l(5) =   1
                l(6) =   1
                l(7) =   2
                l(8) =   2
                l(9) =   2
               l(10) =   2
     Q(r) pseudized with 0 coefficients 


     atomic species   valence    mass     pseudopotential
     Ba               10.00   137.32700     Ba( 1.00)
     O                 6.00    15.99940     O ( 1.00)
     Pb               14.00   207.20000     Pb( 1.00)
     Bi               15.00   208.98040     Bi( 1.00)

     48 Sym. Ops., with inversion, found



   Cartesian axes

     site n.     atom                  positions (alat units)
         1        Ba     tau(   1) = (   0.2500000   0.2500000   0.2500000  )
         2        Ba     tau(   2) = (   0.2500000   0.2500000   0.7500000  )
         3        Ba     tau(   3) = (   0.2500000   0.7500000   0.2500000  )
         4        Ba     tau(   4) = (   0.2500000   0.7500000   0.7500000  )
         5        Ba     tau(   5) = (   0.7500000   0.2500000   0.2500000  )
         6        Ba     tau(   6) = (   0.7500000   0.2500000   0.7500000  )
         7        Ba     tau(   7) = (   0.7500000   0.7500000   0.2500000  )
         8        Ba     tau(   8) = (   0.7500000   0.7500000   0.7500000  )
         9        Bi     tau(   9) = (   0.0000000   0.0000000   0.0000000  )
        10        Pb     tau(  10) = (   0.5000000   0.5000000   0.5000000  )
        11        Pb     tau(  11) = (   0.0000000   0.0000000   0.5000000  )
        12        Pb     tau(  12) = (   0.0000000   0.5000000   0.0000000  )
        13        Pb     tau(  13) = (   0.0000000   0.5000000   0.5000000  )
        14        Pb     tau(  14) = (   0.5000000   0.0000000   0.0000000  )
        15        Pb     tau(  15) = (   0.5000000   0.0000000   0.5000000  )
        16        Pb     tau(  16) = (   0.5000000   0.5000000   0.0000000  )
        17        O      tau(  17) = (   0.0000000   0.2500000   0.0000000  )
        18        O      tau(  18) = (   0.0000000   0.2500000   0.5000000  )
        19        O      tau(  19) = (   0.0000000   0.7500000   0.0000000  )
        20        O      tau(  20) = (   0.0000000   0.7500000   0.5000000  )
        21        O      tau(  21) = (   0.5000000   0.2500000   0.0000000  )
        22        O      tau(  22) = (   0.5000000   0.2500000   0.5000000  )
        23        O      tau(  23) = (   0.5000000   0.7500000   0.0000000  )
        24        O      tau(  24) = (   0.5000000   0.7500000   0.5000000  )
        25        O      tau(  25) = (   0.0000000   0.0000000   0.2500000  )
        26        O      tau(  26) = (   0.0000000   0.0000000   0.7500000  )
        27        O      tau(  27) = (   0.0000000   0.5000000   0.2500000  )
        28        O      tau(  28) = (   0.0000000   0.5000000   0.7500000  )
        29        O      tau(  29) = (   0.5000000   0.0000000   0.2500000  )
        30        O      tau(  30) = (   0.5000000   0.0000000   0.7500000  )
        31        O      tau(  31) = (   0.5000000   0.5000000   0.2500000  )
        32        O      tau(  32) = (   0.5000000   0.5000000   0.7500000  )
        33        O      tau(  33) = (   0.2500000   0.0000000   0.0000000  )
        34        O      tau(  34) = (   0.2500000   0.0000000   0.5000000  )
        35        O      tau(  35) = (   0.2500000   0.5000000   0.0000000  )
        36        O      tau(  36) = (   0.2500000   0.5000000   0.5000000  )
        37        O      tau(  37) = (   0.7500000   0.0000000   0.0000000  )
        38        O      tau(  38) = (   0.7500000   0.0000000   0.5000000  )
        39        O      tau(  39) = (   0.7500000   0.5000000   0.0000000  )
        40        O      tau(  40) = (   0.7500000   0.5000000   0.5000000  )

     number of k points=    10 (tetrahedron method)
                       cart. coord. in units 2pi/alat
        k(    1) = (   0.0000000   0.0000000   0.0000000), wk =   0.0156250
        k(    2) = (   0.0000000   0.0000000   0.2500000), wk =   0.0937500
        k(    3) = (   0.0000000   0.0000000  -0.5000000), wk =   0.0468750
        k(    4) = (   0.0000000   0.2500000   0.2500000), wk =   0.1875000
        k(    5) = (   0.0000000   0.2500000  -0.5000000), wk =   0.1875000
        k(    6) = (   0.0000000  -0.5000000  -0.5000000), wk =   0.0468750
        k(    7) = (   0.2500000   0.2500000   0.2500000), wk =   0.1250000
        k(    8) = (   0.2500000   0.2500000  -0.5000000), wk =   0.1875000
        k(    9) = (   0.2500000  -0.5000000  -0.5000000), wk =   0.0937500
        k(   10) = (  -0.5000000  -0.5000000  -0.5000000), wk =   0.0156250

     Dense  grid:  1119885 G-vectors     FFT dimensions: ( 135, 135, 135)

     Smooth grid:   395903 G-vectors     FFT dimensions: (  96,  96,  96)

     Estimated max dynamical RAM per process >       3.02 GB

     Estimated total dynamical RAM >     120.73 GB

     The potential is recalculated from file :
     ./out/bpbo.save/charge-density

     Starting wfcs are  416 randomized atomic wfcs +   16 random wfcs

     Band Structure Calculation
     Davidson diagonalization with overlap
     c_bands: 16 eigenvalues not converged

     ethr =  1.00E-13,  avg # of iterations =120.0

     total cpu time spent up to now is     3719.1 secs

     End of band structure calculation

          k = 0.0000 0.0000 0.0000 ( 49509 PWs)   bands (ev):

   -16.9629 -16.9629 -16.9332 -16.9332 -16.9331 -16.9331 -16.9331 -16.9331
   -16.9102 -16.9102 -16.9102 -16.9102 -16.9101 -16.9101 -16.8899 -16.8899
   -14.9860 -14.9860 -14.9860 -14.9860 -12.1681 -12.1681 -12.1681 -12.1681
   -11.9230 -11.9230  -9.2826  -9.2826  -9.0527  -9.0527  -9.0315  -9.0315
    -9.0315  -9.0315  -8.9847  -8.9847  -8.9847  -8.9847  -8.8989  -8.8989
    -8.8953  -8.8953  -8.8953  -8.8953  -8.5789  -8.5789  -8.5438  -8.5438
    -8.5438  -8.5438  -8.0778  -8.0778  -8.0326  -8.0326  -8.0326  -8.0326
    -7.9546  -7.9546  -7.8967  -7.8967  -7.8967  -7.8967  -7.7057  -7.7057
    -7.6552  -7.6552  -7.6552  -7.6552  -7.5536  -7.5536  -7.5536  -7.5536
    -7.5161  -7.5161  -7.5087  -7.5087  -7.4510  -7.4510  -7.4510  -7.4510
    -7.4369  -7.4369  -7.4008  -7.4008  -7.4008  -7.4008  -7.2514  -7.2514
    -7.2514  -7.2514  -7.2369  -7.2369  -7.0075  -7.0075  -7.0075  -7.0075
    -6.9773  -6.9773  -6.9155  -6.9155  -6.9155  -6.9155  -5.6557  -5.6557
    -5.6226  -5.6226  -5.6226  -5.6226  -5.5126  -5.5126  -5.4865  -5.4865
    -5.4865  -5.4865  -5.4716  -5.4716  -5.4696  -5.4696  -5.4696  -5.4696
    -5.3706  -5.3706  -5.3555  -5.3555  -5.3555  -5.3555  -5.2955  -5.2955
    -5.0645  -5.0645  -5.0645  -5.0645  -4.9339  -4.9339  -4.3048  -4.3048
    -4.3048  -4.3048  -3.9119  -3.9119  -3.8603  -3.8603  -3.8603  -3.8603
    -3.6383  -3.6383  -3.5136  -3.5136  -3.4855  -3.4855  -3.4855  -3.4855
    -3.4825  -3.4825  -3.4192  -3.4192  -3.4182  -3.4182  -3.4182  -3.4182
    -1.7388  -1.7388  -1.7388  -1.7388  -1.5716  -1.5716  -1.5604  -1.5604
    -1.5604  -1.5604  -1.4983  -1.4983  -1.4983  -1.4983  -1.4136  -1.4136
    -1.4033  -1.4033  -1.4033  -1.4033  -1.3880  -1.3880  -1.3814  -1.3814
    -1.3766  -1.3766  -1.3766  -1.3766  -1.3657  -1.3657  -1.3657  -1.3657
    -0.9569  -0.9569   0.7485   0.7485   1.4994   1.4994   1.4994   1.4994
     2.9395   2.9395   3.3653   3.3653   3.3653   3.3653   3.5651   3.5651
     4.1271   4.1271   4.1271   4.1271   4.2687   4.2687   4.5248   4.5248
     4.5248   4.5248   4.8600   4.8600   4.8887   4.8887   4.9229   4.9229
     4.9229   4.9229   4.9771   4.9771   4.9771   4.9771   6.1170   6.1170
     6.2738   6.2738   6.2738   6.2738   6.2752   6.2752   6.5745   6.5745
     6.5745   6.5745   6.5811   6.5811   7.0483   7.0483   7.1387   7.1387
     7.1387   7.1387   7.1398   7.1398   7.1545   7.1545   7.1545   7.1545
     7.3115   7.3115   7.3328   7.3328   7.3328   7.3328   7.3681   7.3681
     7.3958   7.3958   7.3958   7.3958   7.4053   7.4053   7.4164   7.4164
     7.4164   7.4164   7.4684   7.4684   7.4720   7.4720   7.4720   7.4720
     7.5919   7.5919   7.6078   7.6078   7.6078   7.6078   7.6289   7.6289
     7.6289   7.6289   7.6419   7.6419   7.7675   7.7675   7.7700   7.7700
     7.7700   7.7700   7.7903   7.7903   7.7903   7.7903   7.8074   7.8074
     7.8439   7.8439   7.8439   7.8439   7.8487   7.8487   7.9700   7.9700
     8.0639   8.0639   8.0639   8.0639   8.0798   8.0798   8.0798   8.0798
     8.4229   8.4229   8.4292   8.4292   8.4292   8.4292   8.5023   8.5023
     8.5604   8.5604   8.5604   8.5604   8.6143   8.6143   8.6262   8.6262
     8.6262   8.6262  10.8150  10.8150  11.3989  11.3989  11.3989  11.3989
    12.2675  12.2675  12.7673  12.7673  13.1657  13.1657  13.1657  13.1657
    13.2464  13.2464  13.2464  13.2464  13.3029  13.3029  13.3029  13.3029
    14.1854  14.1854  14.5468  14.5468  14.6339  14.6339  14.6339  14.6339
    14.6610  14.6610  14.6623  14.6623  14.6623  14.6623  14.6842  14.6842
    14.7126  14.7126  15.0252  15.0252  15.0252  15.0252  15.1510  15.1510
    15.2360  15.2360  15.2360  15.2360  15.3262  15.3262  15.3262  15.3262
    15.4488  15.4488  15.4564  15.4564  15.4564  15.4564  15.4624  15.4624
    15.5646  15.5646  15.6138  15.6138  15.6138  15.6138  16.0307  16.0307
    16.0485  16.0485  16.0485  16.0485  16.1488  16.1488  16.1488  16.1488
    16.3452  16.3452  16.3590  16.3590  16.3590  16.3590  16.4207  16.4207
    16.4345  16.4345  16.4345  16.4345  16.4891  16.4891  16.4896  16.4906

          k = 0.0000 0.0000 0.2500 ( 49466 PWs)   bands (ev):

   -16.9585 -16.9585 -16.9375 -16.9375 -16.9298 -16.9298 -16.9298 -16.9298
   -16.9135 -16.9135 -16.9135 -16.9135 -16.9072 -16.9072 -16.8929 -16.8929
   -14.9860 -14.9860 -14.9858 -14.9858 -12.1681 -12.1681 -12.1664 -12.1664
   -11.9230 -11.9230  -9.2445  -9.2445  -9.0395  -9.0395  -9.0291  -9.0291
    -8.9889  -8.9889  -8.9813  -8.9813  -8.9473  -8.9473  -8.8914  -8.8914
    -8.8650  -8.8650  -8.8191  -8.8191  -8.6585  -8.6585  -8.5467  -8.5467
    -8.5443  -8.5443  -8.2308  -8.2308  -8.2295  -8.2295  -8.0391  -8.0391
    -8.0305  -8.0305  -7.9363  -7.9363  -7.8948  -7.8948  -7.8216  -7.8216
    -7.6986  -7.6986  -7.6480  -7.6480  -7.5529  -7.5529  -7.5434  -7.5434
    -7.5154  -7.5154  -7.5036  -7.5036  -7.4622  -7.4622  -7.4370  -7.4370
    -7.4035  -7.4035  -7.3957  -7.3957  -7.2845  -7.2845  -7.2567  -7.2567
    -7.1547  -7.1547  -7.1170  -7.1170  -7.0287  -7.0287  -7.0080  -7.0080
    -6.9848  -6.9848  -6.9305  -6.9305  -6.9158  -6.9158  -5.6303  -5.6303
    -5.5932  -5.5932  -5.5061  -5.5061  -5.5017  -5.5017  -5.4859  -5.4859
    -5.4822  -5.4822  -5.4527  -5.4527  -5.4386  -5.4386  -5.3706  -5.3706
    -5.3567  -5.3567  -5.3565  -5.3565  -5.3345  -5.3345  -5.2971  -5.2971
    -5.0657  -5.0657  -4.9827  -4.9827  -4.8544  -4.8544  -4.4164  -4.4164
    -4.3216  -4.3216  -4.0416  -4.0416  -4.0148  -4.0148  -3.8666  -3.8666
    -3.6163  -3.6163  -3.5074  -3.5074  -3.4935  -3.4935  -3.4759  -3.4759
    -3.4738  -3.4738  -3.4300  -3.4300  -3.4288  -3.4288  -3.4278  -3.4278
    -1.7136  -1.7136  -1.6936  -1.6936  -1.5906  -1.5906  -1.5409  -1.5409
    -1.5339  -1.5339  -1.4816  -1.4816  -1.4742  -1.4742  -1.4588  -1.4588
    -1.4082  -1.4082  -1.4065  -1.4065  -1.4058  -1.4058  -1.3998  -1.3998
    -1.3918  -1.3918  -1.3888  -1.3888  -1.3846  -1.3846  -1.3753  -1.3753
    -0.8467  -0.8467   0.6238   0.6238   1.3196   1.3196   1.6221   1.6221
     2.4475   2.4475   2.7366   2.7366   3.3211   3.3211   3.6556   3.6556
     4.1198   4.1198   4.1858   4.1858   4.4682   4.4682   4.5705   4.5705
     4.7166   4.7166   4.8548   4.8548   4.8996   4.8996   4.9466   4.9466
     5.0820   5.0820   5.4910   5.4910   5.6273   5.6273   6.3189   6.3189
     6.3209   6.3209   6.3917   6.3917   6.5388   6.5388   6.5559   6.5559
     6.5691   6.5691   6.6284   6.6284   7.0111   7.0111   7.0907   7.0907
     7.0985   7.0985   7.1424   7.1424   7.1446   7.1446   7.1686   7.1686
     7.2029   7.2029   7.2696   7.2696   7.2952   7.2952   7.3685   7.3685
     7.3720   7.3720   7.3857   7.3857   7.3876   7.3876   7.3966   7.3966
     7.4211   7.4211   7.4214   7.4214   7.5025   7.5025   7.5072   7.5072
     7.5947   7.5947   7.6164   7.6164   7.6236   7.6236   7.6459   7.6459
     7.6813   7.6813   7.6967   7.6967   7.7467   7.7467   7.7488   7.7488
     7.7521   7.7521   7.7624   7.7624   7.7760   7.7760   7.7763   7.7763
     7.8166   7.8166   7.8849   7.8849   7.9441   7.9441   7.9523   7.9523
     7.9794   7.9794   8.0439   8.0439   8.0549   8.0549   8.2441   8.2441
     8.2740   8.2740   8.3069   8.3069   8.3190   8.3190   8.3630   8.3630
     8.4272   8.4272   8.4927   8.4927   8.5029   8.5029   8.5528   8.5528
     8.6205   8.6205  10.4465  10.4465  11.1807  11.1807  11.5103  11.5103
    12.2701  12.2701  12.6026  12.6026  12.6399  12.6399  13.0692  13.0692
    13.4174  13.4174  13.4465  13.4465  13.4590  13.4590  13.5711  13.5711
    14.2085  14.2085  14.4424  14.4424  14.4728  14.4728  14.5498  14.5498
    14.7323  14.7323  14.7514  14.7514  14.8370  14.8370  14.8473  14.8473
    14.9049  14.9049  14.9636  14.9636  15.0523  15.0523  15.0890  15.0890
    15.2598  15.2598  15.2747  15.2747  15.3100  15.3100  15.3813  15.3813
    15.4123  15.4123  15.4730  15.4730  15.5557  15.5557  15.5760  15.5760
    15.5959  15.5959  15.6297  15.6297  15.7139  15.7139  15.7417  15.7417
    15.9037  15.9037  15.9913  15.9913  16.0407  16.0407  16.1846  16.1846
    16.2156  16.2156  16.2863  16.2863  16.3185  16.3185  16.3450  16.3450
    16.4059  16.4059  16.4185  16.4185  16.4358  16.4358  16.6331  16.6332

          k = 0.0000 0.0000-0.5000 ( 49454 PWs)   bands (ev):

   -16.9484 -16.9484 -16.9477 -16.9477 -16.9218 -16.9218 -16.9218 -16.9218
   -16.9216 -16.9216 -16.9215 -16.9215 -16.9003 -16.9003 -16.8998 -16.8998
   -14.9860 -14.9860 -14.9857 -14.9857 -12.1681 -12.1681 -12.1648 -12.1648
   -11.9230 -11.9230  -9.1883  -9.1883  -9.0364  -9.0364  -9.0266  -9.0266
    -8.9976  -8.9976  -8.9525  -8.9525  -8.9273  -8.9273  -8.8815  -8.8815
    -8.7542  -8.7542  -8.7435  -8.7435  -8.6038  -8.6038  -8.5696  -8.5696
    -8.5431  -8.5431  -8.4270  -8.4270  -8.4155  -8.4155  -8.3034  -8.3034
    -8.0400  -8.0400  -7.9337  -7.9337  -7.8932  -7.8932  -7.8413  -7.8413
    -7.7184  -7.7184  -7.6138  -7.6138  -7.5538  -7.5538  -7.5245  -7.5245
    -7.5190  -7.5190  -7.4908  -7.4908  -7.4885  -7.4885  -7.4362  -7.4362
    -7.4058  -7.4058  -7.3443  -7.3443  -7.2959  -7.2959  -7.1370  -7.1370
    -7.0897  -7.0897  -7.0854  -7.0854  -7.0203  -7.0203  -7.0109  -7.0109
    -6.9962  -6.9962  -6.9637  -6.9637  -6.9162  -6.9162  -5.6282  -5.6282
    -5.5674  -5.5674  -5.4950  -5.4950  -5.4925  -5.4925  -5.4814  -5.4814
    -5.4329  -5.4329  -5.3963  -5.3963  -5.3825  -5.3825  -5.3711  -5.3711
    -5.3576  -5.3576  -5.3560  -5.3560  -5.2988  -5.2988  -5.1890  -5.1890
    -5.0572  -5.0572  -4.8256  -4.8256  -4.6432  -4.6432  -4.5078  -4.5078
    -4.3913  -4.3913  -4.3841  -4.3841  -4.1358  -4.1358  -3.8679  -3.8679
    -3.5663  -3.5663  -3.5583  -3.5583  -3.4605  -3.4605  -3.4575  -3.4575
    -3.4530  -3.4530  -3.4521  -3.4521  -3.4508  -3.4508  -3.4507  -3.4507
    -1.6546  -1.6546  -1.6498  -1.6498  -1.5850  -1.5850  -1.5750  -1.5750
    -1.4760  -1.4760  -1.4758  -1.4758  -1.4692  -1.4692  -1.4676  -1.4676
    -1.4394  -1.4394  -1.4375  -1.4375  -1.4276  -1.4276  -1.4238  -1.4238
    -1.3989  -1.3989  -1.3957  -1.3957  -1.3904  -1.3904  -1.3890  -1.3890
    -0.6893  -0.6893   0.3629   0.3629   1.3294   1.3294   1.9263   1.9263
     2.0374   2.0374   2.1393   2.1393   3.4786   3.4786   3.5562   3.5562
     3.9502   3.9502   4.2045   4.2045   4.4303   4.4303   4.6197   4.6197
     4.7936   4.7936   4.8047   4.8047   4.8278   4.8278   4.9450   4.9450
     6.1903   6.1903   6.2152   6.2152   6.3792   6.3792   6.4242   6.4242
     6.4453   6.4453   6.5005   6.5005   6.5764   6.5764   6.6153   6.6153
     6.6249   6.6249   6.7608   6.7608   6.7993   6.7993   6.8422   6.8422
     6.8464   6.8464   6.8695   6.8695   7.0957   7.0957   7.1256   7.1256
     7.1302   7.1302   7.1631   7.1631   7.2216   7.2216   7.2870   7.2870
     7.3512   7.3512   7.3620   7.3620   7.3635   7.3635   7.4425   7.4425
     7.4553   7.4553   7.4577   7.4577   7.4602   7.4602   7.4622   7.4622
     7.4717   7.4717   7.5508   7.5508   7.5959   7.5959   7.6157   7.6157
     7.6723   7.6723   7.6729   7.6729   7.7138   7.7138   7.7359   7.7359
     7.8228   7.8228   7.8648   7.8648   7.8731   7.8731   7.8850   7.8850
     7.9014   7.9014   7.9108   7.9108   7.9305   7.9305   7.9346   7.9346
     7.9622   7.9622   8.0231   8.0231   8.0458   8.0458   8.0818   8.0818
     8.1994   8.1994   8.2096   8.2096   8.2181   8.2181   8.2586   8.2586
     8.2630   8.2630   8.4278   8.4278   8.5512   8.5512   8.6186   8.6186
     9.0834   9.0834   9.3982   9.3982  11.2063  11.2063  11.8061  11.8061
    11.9106  11.9106  12.0238  12.0238  12.9023  12.9023  12.9994  12.9994
    13.5746  13.5746  13.8935  13.8935  13.9344  13.9344  13.9357  13.9357
    13.9706  13.9706  13.9999  13.9999  14.1440  14.1440  14.4307  14.4307
    14.6529  14.6529  14.7337  14.7337  14.8640  14.8640  14.9463  14.9463
    14.9762  14.9762  14.9770  14.9770  15.1284  15.1284  15.2893  15.2893
    15.4378  15.4378  15.4493  15.4493  15.4591  15.4591  15.4781  15.4781
    15.4832  15.4832  15.5170  15.5170  15.5716  15.5716  15.5839  15.5839
    15.6501  15.6501  15.7150  15.7150  15.7911  15.7911  15.7947  15.7947
    15.8921  15.8921  15.8925  15.8925  16.0114  16.0114  16.0244  16.0244
    16.0362  16.0362  16.0512  16.0512  16.0521  16.0521  16.0675  16.0675
    16.0898  16.0898  16.2848  16.2848  16.3067  16.3067  16.3180  16.3180

          k = 0.0000 0.2500 0.2500 ( 49490 PWs)   bands (ev):

   -16.9544 -16.9544 -16.9341 -16.9341 -16.9340 -16.9340 -16.9265 -16.9265
   -16.9171 -16.9171 -16.9105 -16.9105 -16.9105 -16.9105 -16.8959 -16.8959
   -14.9859 -14.9859 -14.9858 -14.9858 -12.1673 -12.1673 -12.1656 -12.1656
   -11.9230 -11.9230  -9.2048  -9.2048  -9.0193  -9.0193  -9.0110  -9.0110
    -8.9503  -8.9503  -8.9395  -8.9395  -8.9365  -8.9365  -8.8629  -8.8629
    -8.8199  -8.8199  -8.8142  -8.8142  -8.6743  -8.6743  -8.6157  -8.6157
    -8.5214  -8.5214  -8.3207  -8.3207  -8.2656  -8.2656  -8.1858  -8.1858
    -8.1329  -8.1329  -8.0001  -8.0001  -7.9171  -7.9171  -7.8697  -7.8697
    -7.8055  -7.8055  -7.6833  -7.6833  -7.6154  -7.6154  -7.5255  -7.5255
    -7.5063  -7.5063  -7.4788  -7.4788  -7.4706  -7.4706  -7.4186  -7.4186
    -7.3122  -7.3122  -7.2688  -7.2688  -7.2382  -7.2382  -7.1510  -7.1510
    -7.1432  -7.1432  -7.1001  -7.1001  -7.0381  -7.0381  -7.0170  -7.0170
    -6.9930  -6.9930  -6.9387  -6.9387  -6.9232  -6.9232  -5.5530  -5.5530
    -5.5523  -5.5523  -5.5008  -5.5008  -5.4857  -5.4857  -5.4830  -5.4830
    -5.4305  -5.4305  -5.3960  -5.3960  -5.3698  -5.3698  -5.3578  -5.3578
    -5.3577  -5.3577  -5.3056  -5.3056  -5.2984  -5.2984  -5.2893  -5.2893
    -4.9933  -4.9933  -4.9863  -4.9863  -4.8310  -4.8310  -4.4803  -4.4803
    -4.3704  -4.3704  -4.1646  -4.1646  -4.0684  -4.0684  -3.9836  -3.9836
    -3.5963  -3.5963  -3.4975  -3.4975  -3.4949  -3.4949  -3.4791  -3.4791
    -3.4678  -3.4678  -3.4405  -3.4405  -3.4362  -3.4362  -3.4352  -3.4352
    -1.6886  -1.6886  -1.6535  -1.6535  -1.5691  -1.5691  -1.5594  -1.5594
    -1.5176  -1.5176  -1.4804  -1.4804  -1.4532  -1.4532  -1.4486  -1.4486
    -1.4408  -1.4408  -1.4356  -1.4356  -1.4251  -1.4251  -1.4170  -1.4170
    -1.3995  -1.3995  -1.3983  -1.3983  -1.3856  -1.3856  -1.3769  -1.3769
    -0.7556  -0.7556   0.6318   0.6318   1.1694   1.1694   1.5941   1.5941
     2.1005   2.1005   2.6384   2.6384   2.7852   2.7852   3.4876   3.4876
     4.0006   4.0006   4.5409   4.5409   4.6022   4.6022   4.6971   4.6971
     4.8357   4.8357   5.0488   5.0488   5.1659   5.1659   5.3731   5.3731
     5.5352   5.5352   5.5641   5.5641   5.7531   5.7531   6.3615   6.3615
     6.4040   6.4040   6.4327   6.4327   6.5574   6.5574   6.5758   6.5758
     6.5807   6.5807   6.6662   6.6662   6.9489   6.9489   7.0555   7.0555
     7.0598   7.0598   7.0865   7.0865   7.1255   7.1255   7.1350   7.1350
     7.1735   7.1735   7.2221   7.2221   7.2424   7.2424   7.2939   7.2939
     7.3105   7.3105   7.3251   7.3251   7.3954   7.3954   7.4480   7.4480
     7.4584   7.4584   7.5103   7.5103   7.5153   7.5153   7.5314   7.5314
     7.5516   7.5516   7.5958   7.5958   7.6096   7.6096   7.6556   7.6556
     7.6745   7.6745   7.6843   7.6843   7.6996   7.6996   7.7208   7.7208
     7.7300   7.7300   7.7873   7.7873   7.8083   7.8083   7.8117   7.8117
     7.8297   7.8297   7.9066   7.9066   7.9748   7.9748   7.9869   7.9869
     7.9977   7.9977   8.0112   8.0112   8.0764   8.0764   8.1085   8.1085
     8.2402   8.2402   8.2591   8.2591   8.3246   8.3246   8.3402   8.3402
     8.3631   8.3631   8.4592   8.4592   8.4752   8.4752   8.4922   8.4922
     8.5428   8.5428  10.3892  10.3892  10.8330  10.8330  11.4394  11.4394
    11.9093  11.9093  12.4359  12.4359  12.5757  12.5757  12.7294  12.7294
    13.4786  13.4786  13.6142  13.6142  13.6700  13.6700  13.8444  13.8444
    14.3352  14.3352  14.5270  14.5270  14.5338  14.5338  14.6079  14.6079
    14.7114  14.7114  14.7259  14.7259  14.7992  14.7992  14.8519  14.8519
    14.9059  14.9059  14.9420  14.9420  15.0348  15.0348  15.1125  15.1125
    15.1383  15.1383  15.3629  15.3629  15.4643  15.4643  15.4927  15.4927
    15.5113  15.5113  15.5538  15.5538  15.5823  15.5823  15.6430  15.6430
    15.6690  15.6690  15.7053  15.7053  15.7150  15.7150  15.7428  15.7428
    15.8264  15.8264  15.9022  15.9022  15.9123  15.9123  15.9380  15.9380
    16.1153  16.1153  16.1641  16.1641  16.1950  16.1950  16.2510  16.2510
    16.3060  16.3060  16.3909  16.3909  16.5173  16.5173  16.5509  16.5509

          k = 0.0000 0.2500-0.5000 ( 49470 PWs)   bands (ev):

   -16.9445 -16.9445 -16.9439 -16.9439 -16.9257 -16.9257 -16.9254 -16.9254
   -16.9187 -16.9187 -16.9184 -16.9184 -16.9034 -16.9034 -16.9030 -16.9030
   -14.9859 -14.9859 -14.9856 -14.9856 -12.1670 -12.1670 -12.1642 -12.1642
   -11.9230 -11.9230  -9.1433  -9.1433  -9.0170  -9.0170  -9.0060  -9.0060
    -8.9553  -8.9553  -8.9062  -8.9062  -8.8958  -8.8958  -8.8210  -8.8210
    -8.7859  -8.7859  -8.7404  -8.7404  -8.6156  -8.6156  -8.5766  -8.5766
    -8.5483  -8.5483  -8.5042  -8.5042  -8.4315  -8.4315  -8.2949  -8.2949
    -8.2139  -8.2139  -8.1164  -8.1164  -7.9171  -7.9171  -7.9109  -7.9109
    -7.8635  -7.8635  -7.6554  -7.6554  -7.6021  -7.6021  -7.5191  -7.5191
    -7.5031  -7.5031  -7.4825  -7.4825  -7.4329  -7.4329  -7.4158  -7.4158
    -7.2804  -7.2804  -7.2169  -7.2169  -7.1556  -7.1556  -7.1480  -7.1480
    -7.0919  -7.0919  -7.0813  -7.0813  -7.0266  -7.0266  -7.0167  -7.0167
    -7.0078  -7.0078  -6.9697  -6.9697  -6.9260  -6.9260  -5.5445  -5.5445
    -5.5114  -5.5114  -5.4912  -5.4912  -5.4897  -5.4897  -5.4828  -5.4828
    -5.4095  -5.4095  -5.3694  -5.3694  -5.3587  -5.3587  -5.3580  -5.3580
    -5.3011  -5.3011  -5.2530  -5.2530  -5.2381  -5.2381  -5.0928  -5.0928
    -5.0253  -5.0253  -4.8641  -4.8641  -4.6778  -4.6778  -4.5613  -4.5613
    -4.4958  -4.4958  -4.3747  -4.3747  -4.2347  -4.2347  -4.0130  -4.0130
    -3.5504  -3.5504  -3.5436  -3.5436  -3.4692  -3.4692  -3.4683  -3.4683
    -3.4561  -3.4561  -3.4544  -3.4544  -3.4513  -3.4513  -3.4511  -3.4511
    -1.6283  -1.6283  -1.6260  -1.6260  -1.5579  -1.5579  -1.5501  -1.5501
    -1.5005  -1.5005  -1.4988  -1.4988  -1.4720  -1.4720  -1.4704  -1.4704
    -1.4574  -1.4574  -1.4532  -1.4532  -1.4247  -1.4247  -1.4232  -1.4232
    -1.4058  -1.4058  -1.4038  -1.4038  -1.3904  -1.3904  -1.3883  -1.3883
    -0.6328  -0.6328   0.5092   0.5092   1.1379   1.1379   1.6407   1.6407
     1.8408   1.8408   2.1961   2.1961   2.8802   2.8802   3.1380   3.1380
     3.9868   3.9868   4.6018   4.6018   4.6436   4.6436   4.7859   4.7859
     4.8298   4.8298   5.3066   5.3066   5.3907   5.3907   5.4683   5.4683
     6.1697   6.1697   6.1977   6.1977   6.4179   6.4179   6.4535   6.4535
     6.4900   6.4900   6.5216   6.5216   6.5707   6.5707   6.6098   6.6098
     6.6522   6.6522   6.6749   6.6749   6.7015   6.7015   6.7729   6.7729
     6.7794   6.7794   6.8428   6.8428   7.0730   7.0730   7.0983   7.0983
     7.1077   7.1077   7.1466   7.1466   7.1834   7.1834   7.2275   7.2275
     7.2423   7.2423   7.2855   7.2855   7.3024   7.3024   7.3860   7.3860
     7.4377   7.4377   7.4701   7.4701   7.5017   7.5017   7.5165   7.5165
     7.5377   7.5377   7.5437   7.5437   7.6553   7.6553   7.6766   7.6766
     7.7161   7.7161   7.7310   7.7310   7.7481   7.7481   7.7623   7.7623
     7.8006   7.8006   7.8063   7.8063   7.8520   7.8520   7.8660   7.8660
     7.8675   7.8675   7.9158   7.9158   7.9341   7.9341   7.9597   7.9597
     7.9655   7.9655   8.0383   8.0383   8.0687   8.0687   8.1067   8.1067
     8.1430   8.1430   8.2034   8.2034   8.2168   8.2168   8.2599   8.2599
     8.3219   8.3219   8.3583   8.3583   8.3703   8.3703   8.5231   8.5231
     9.1816   9.1816   9.5838   9.5838  10.8110  10.8110  11.3532  11.3532
    11.6496  11.6496  12.0328  12.0328  12.4992  12.4992  12.7337  12.7337
    13.7121  13.7121  14.0422  14.0422  14.0460  14.0460  14.1191  14.1191
    14.1887  14.1887  14.2169  14.2169  14.3732  14.3732  14.5098  14.5098
    14.7087  14.7087  14.7358  14.7358  14.7638  14.7638  14.8936  14.8936
    14.9371  14.9371  15.0431  15.0431  15.1977  15.1977  15.2666  15.2666
    15.2814  15.2814  15.3393  15.3393  15.3698  15.3698  15.3831  15.3831
    15.5225  15.5225  15.5681  15.5681  15.5854  15.5854  15.6113  15.6113
    15.6206  15.6206  15.6432  15.6432  15.8282  15.8282  15.8591  15.8591
    15.9344  15.9344  15.9550  15.9550  15.9877  15.9877  15.9982  15.9982
    16.0053  16.0053  16.0082  16.0082  16.0649  16.0649  16.1142  16.1142
    16.1287  16.1287  16.2216  16.2216  16.2947  16.2948  16.3222  16.3235

          k = 0.0000-0.5000-0.5000 ( 49600 PWs)   bands (ev):

   -16.9355 -16.9355 -16.9348 -16.9348 -16.9348 -16.9348 -16.9345 -16.9345
   -16.9112 -16.9112 -16.9110 -16.9110 -16.9109 -16.9109 -16.9105 -16.9105
   -14.9858 -14.9858 -14.9855 -14.9855 -12.1664 -12.1664 -12.1631 -12.1631
   -11.9230 -11.9230  -9.0599  -9.0599  -9.0128  -9.0128  -9.0117  -9.0117
    -8.9166  -8.9166  -8.8766  -8.8766  -8.8694  -8.8694  -8.7540  -8.7540
    -8.6895  -8.6895  -8.6716  -8.6716  -8.6705  -8.6705  -8.6210  -8.6210
    -8.5501  -8.5501  -8.5498  -8.5498  -8.4770  -8.4770  -8.4515  -8.4515
    -8.2483  -8.2483  -8.2467  -8.2467  -8.1557  -8.1557  -7.9298  -7.9298
    -7.9134  -7.9134  -7.6167  -7.6167  -7.6110  -7.6110  -7.5192  -7.5192
    -7.5029  -7.5029  -7.4884  -7.4884  -7.4223  -7.4223  -7.2639  -7.2639
    -7.2169  -7.2169  -7.2165  -7.2165  -7.1332  -7.1332  -7.0928  -7.0928
    -7.0669  -7.0669  -7.0528  -7.0528  -7.0492  -7.0492  -7.0202  -7.0202
    -7.0128  -7.0128  -7.0005  -7.0005  -6.9361  -6.9361  -5.4972  -5.4972
    -5.4930  -5.4930  -5.4865  -5.4865  -5.4860  -5.4860  -5.4818  -5.4818
    -5.3961  -5.3961  -5.3675  -5.3675  -5.3598  -5.3598  -5.3597  -5.3597
    -5.3031  -5.3031  -4.9745  -4.9745  -4.9706  -4.9706  -4.9594  -4.9594
    -4.8838  -4.8838  -4.8142  -4.8142  -4.7946  -4.7946  -4.7941  -4.7941
    -4.7440  -4.7440  -4.3203  -4.3203  -4.3190  -4.3190  -4.2296  -4.2296
    -3.5147  -3.5147  -3.5076  -3.5076  -3.5071  -3.5071  -3.5053  -3.5053
    -3.4536  -3.4536  -3.4520  -3.4520  -3.4515  -3.4515  -3.4499  -3.4499
    -1.5716  -1.5716  -1.5703  -1.5703  -1.5588  -1.5588  -1.5561  -1.5561
    -1.4952  -1.4952  -1.4898  -1.4898  -1.4895  -1.4895  -1.4846  -1.4846
    -1.4718  -1.4718  -1.4687  -1.4687  -1.4679  -1.4679  -1.4612  -1.4612
    -1.3958  -1.3958  -1.3939  -1.3939  -1.3868  -1.3868  -1.3841  -1.3841
    -0.5623  -0.5623   0.8846   0.8846   0.9000   0.9000   1.0278   1.0278
     1.9279   1.9279   2.4432   2.4432   2.4845   2.4845   2.6163   2.6163
     3.9999   3.9999   4.6733   4.6733   4.6738   4.6738   4.7609   4.7609
     5.6803   5.6803   5.7156   5.7156   5.8890   5.8890   6.1734   6.1734
     6.2324   6.2324   6.2573   6.2573   6.2946   6.2946   6.3017   6.3017
     6.4846   6.4846   6.5389   6.5389   6.5431   6.5431   6.5478   6.5478
     6.5705   6.5705   6.6220   6.6220   6.6288   6.6288   6.7584   6.7584
     6.7957   6.7957   6.8979   6.8979   6.9038   6.9038   6.9610   6.9610
     7.0643   7.0643   7.1257   7.1257   7.1346   7.1346   7.1391   7.1391
     7.1448   7.1448   7.2286   7.2286   7.2412   7.2412   7.2524   7.2524
     7.4660   7.4660   7.4856   7.4856   7.4960   7.4960   7.5020   7.5020
     7.6008   7.6008   7.6391   7.6391   7.6449   7.6449   7.6452   7.6452
     7.7296   7.7296   7.7770   7.7770   7.7814   7.7814   7.7905   7.7905
     7.7926   7.7926   7.7958   7.7958   7.8394   7.8394   7.8680   7.8680
     7.8837   7.8837   7.8916   7.8916   7.9294   7.9294   7.9756   7.9756
     8.0060   8.0060   8.0140   8.0140   8.0397   8.0397   8.0436   8.0436
     8.2539   8.2539   8.2579   8.2579   8.2585   8.2585   8.2629   8.2629
     8.2779   8.2779   8.2881   8.2881   8.2940   8.2940   8.3402   8.3402
     9.4240   9.4240  10.1852  10.1852  10.2065  10.2065  10.3621  10.3621
    11.6429  11.6429  12.1439  12.1439  12.2348  12.2348  12.3657  12.3657
    13.8903  13.8903  14.3228  14.3228  14.3373  14.3373  14.3406  14.3406
    14.3413  14.3413  14.5020  14.5020  14.5136  14.5136  14.5501  14.5501
    14.7277  14.7277  14.7457  14.7457  14.7721  14.7721  14.8175  14.8175
    14.8280  14.8280  14.8698  14.8698  14.9389  14.9389  14.9542  14.9542
    15.3362  15.3362  15.4891  15.4891  15.5026  15.5026  15.5045  15.5045
    15.5823  15.5823  15.5867  15.5867  15.5885  15.5885  15.6036  15.6036
    15.6131  15.6131  15.6227  15.6227  15.6235  15.6235  15.6396  15.6396
    15.8109  15.8109  15.8686  15.8686  15.8926  15.8926  15.8927  15.8927
    15.9541  15.9541  15.9703  15.9703  15.9717  15.9717  15.9795  15.9795
    16.1053  16.1053  16.3540  16.3540  16.3592  16.3593  16.3818  16.3818

          k = 0.2500 0.2500 0.2500 ( 49472 PWs)   bands (ev):

   -16.9503 -16.9503 -16.9307 -16.9307 -16.9306 -16.9306 -16.9306 -16.9306
   -16.9140 -16.9140 -16.9140 -16.9140 -16.9139 -16.9139 -16.8990 -16.8990
   -14.9858 -14.9858 -14.9858 -14.9858 -12.1656 -12.1656 -12.1656 -12.1656
   -11.9230 -11.9230  -9.1636  -9.1636  -8.9681  -8.9681  -8.9506  -8.9506
    -8.9496  -8.9496  -8.9173  -8.9173  -8.9163  -8.9163  -8.8191  -8.8191
    -8.8181  -8.8181  -8.8095  -8.8095  -8.6664  -8.6664  -8.6602  -8.6602
    -8.5239  -8.5239  -8.3556  -8.3556  -8.3029  -8.3029  -8.3004  -8.3004
    -8.2464  -8.2464  -8.0292  -8.0292  -8.0274  -8.0274  -7.8898  -7.8898
    -7.8339  -7.8339  -7.8285  -7.8285  -7.6919  -7.6919  -7.5956  -7.5956
    -7.5859  -7.5859  -7.3368  -7.3368  -7.3212  -7.3212  -7.2869  -7.2869
    -7.2553  -7.2553  -7.2177  -7.2177  -7.2165  -7.2165  -7.1331  -7.1331
    -7.1297  -7.1297  -7.0977  -7.0977  -7.0406  -7.0406  -7.0315  -7.0315
    -7.0014  -7.0014  -6.9407  -6.9407  -6.9373  -6.9373  -5.4992  -5.4992
    -5.4849  -5.4849  -5.4847  -5.4847  -5.4344  -5.4344  -5.3928  -5.3928
    -5.3909  -5.3909  -5.3683  -5.3683  -5.3590  -5.3590  -5.3587  -5.3587
    -5.3013  -5.3013  -5.2824  -5.2824  -5.2805  -5.2805  -5.2696  -5.2696
    -4.9704  -4.9704  -4.9689  -4.9689  -4.8260  -4.8260  -4.4851  -4.4851
    -4.4795  -4.4795  -4.1992  -4.1992  -4.1575  -4.1575  -4.1499  -4.1499
    -3.5782  -3.5782  -3.4894  -3.4894  -3.4873  -3.4873  -3.4853  -3.4853
    -3.4697  -3.4697  -3.4452  -3.4452  -3.4447  -3.4447  -3.4433  -3.4433
    -1.6677  -1.6677  -1.6147  -1.6147  -1.5545  -1.5545  -1.5437  -1.5437
    -1.5386  -1.5386  -1.4829  -1.4829  -1.4576  -1.4576  -1.4493  -1.4493
    -1.4443  -1.4443  -1.4410  -1.4410  -1.4380  -1.4380  -1.4306  -1.4306
    -1.4197  -1.4197  -1.3954  -1.3954  -1.3864  -1.3864  -1.3792  -1.3792
    -0.6833  -0.6833   0.6737   0.6737   1.2841   1.2841   1.2950   1.2950
     2.0329   2.0329   2.3200   2.3200   2.3384   2.3384   3.1010   3.1010
     4.3688   4.3688   4.6588   4.6588   4.9253   4.9253   5.0110   5.0110
     5.1363   5.1363   5.2607   5.2607   5.4200   5.4200   5.4229   5.4229
     5.6745   5.6745   5.7401   5.7401   5.7421   5.7421   6.4227   6.4227
     6.4268   6.4268   6.4647   6.4647   6.5526   6.5526   6.5618   6.5618
     6.5637   6.5637   6.6696   6.6696   6.8756   6.8756   7.0432   7.0432
     7.0558   7.0558   7.0635   7.0635   7.0750   7.0750   7.1210   7.1210
     7.1327   7.1327   7.1668   7.1668   7.1727   7.1727   7.2773   7.2773
     7.2802   7.2802   7.2900   7.2900   7.4048   7.4048   7.4086   7.4086
     7.4300   7.4300   7.4702   7.4702   7.4723   7.4723   7.5037   7.5037
     7.5230   7.5230   7.5396   7.5396   7.5955   7.5955   7.6360   7.6360
     7.6496   7.6496   7.6713   7.6713   7.7036   7.7036   7.7395   7.7395
     7.7505   7.7505   7.7552   7.7552   7.8909   7.8909   7.9106   7.9106
     7.9122   7.9122   7.9226   7.9226   7.9927   7.9927   7.9989   7.9989
     8.0010   8.0010   8.0447   8.0447   8.0986   8.0986   8.1137   8.1137
     8.1269   8.1269   8.1777   8.1777   8.2616   8.2616   8.2696   8.2696
     8.3529   8.3529   8.4852   8.4852   8.4941   8.4941   8.5048   8.5048
     8.6480   8.6480  10.3387  10.3387  10.9266  10.9266  10.9473  10.9473
    11.7512  11.7512  12.0847  12.0847  12.1261  12.1261  12.4930  12.4930
    13.6728  13.6728  13.8008  13.8008  13.8153  13.8153  14.0680  14.0680
    14.4645  14.4645  14.6462  14.6462  14.6499  14.6499  14.6623  14.6623
    14.7301  14.7301  14.7672  14.7672  14.8012  14.8012  14.8147  14.8147
    14.8681  14.8681  14.8725  14.8725  15.0602  15.0602  15.1730  15.1730
    15.1944  15.1944  15.2804  15.2804  15.4507  15.4507  15.4906  15.4906
    15.4970  15.4970  15.6213  15.6213  15.6233  15.6233  15.6428  15.6428
    15.7266  15.7266  15.7635  15.7635  15.7784  15.7784  15.7981  15.7981
    15.8051  15.8051  15.8329  15.8329  15.8629  15.8629  15.8761  15.8761
    15.8929  15.8929  15.9829  15.9829  16.0260  16.0260  16.0378  16.0378
    16.2819  16.2819  16.5327  16.5327  16.5541  16.5541  16.5622  16.5623

          k = 0.2500 0.2500-0.5000 ( 49498 PWs)   bands (ev):

   -16.9408 -16.9408 -16.9402 -16.9402 -16.9225 -16.9225 -16.9224 -16.9224
   -16.9222 -16.9222 -16.9221 -16.9221 -16.9067 -16.9067 -16.9063 -16.9063
   -14.9858 -14.9858 -14.9856 -14.9856 -12.1656 -12.1656 -12.1640 -12.1640
   -11.9230 -11.9230  -9.0971  -9.0971  -8.9521  -8.9521  -8.9497  -8.9497
    -8.9461  -8.9461  -8.8767  -8.8767  -8.8460  -8.8460  -8.8097  -8.8097
    -8.8069  -8.8069  -8.7308  -8.7308  -8.6233  -8.6233  -8.5832  -8.5832
    -8.5570  -8.5570  -8.5398  -8.5398  -8.4895  -8.4895  -8.3093  -8.3093
    -8.2856  -8.2856  -8.2186  -8.2186  -8.0640  -8.0640  -7.9368  -7.9368
    -7.8927  -7.8927  -7.8563  -7.8563  -7.7449  -7.7449  -7.5958  -7.5958
    -7.4645  -7.4645  -7.3031  -7.3031  -7.2863  -7.2863  -7.2756  -7.2756
    -7.2011  -7.2011  -7.1910  -7.1910  -7.1579  -7.1579  -7.1355  -7.1355
    -7.1064  -7.1064  -7.0779  -7.0779  -7.0305  -7.0305  -7.0243  -7.0243
    -7.0211  -7.0211  -6.9732  -6.9732  -6.9392  -6.9392  -5.4919  -5.4919
    -5.4893  -5.4893  -5.4840  -5.4840  -5.4012  -5.4012  -5.3678  -5.3678
    -5.3609  -5.3609  -5.3597  -5.3597  -5.3562  -5.3562  -5.3034  -5.3034
    -5.2561  -5.2561  -5.2152  -5.2152  -5.2035  -5.2035  -5.0538  -5.0538
    -5.0051  -5.0051  -4.8954  -4.8954  -4.6978  -4.6978  -4.5886  -4.5886
    -4.4937  -4.4937  -4.4904  -4.4904  -4.3570  -4.3570  -4.1600  -4.1600
    -3.5364  -3.5364  -3.5306  -3.5306  -3.4675  -3.4675  -3.4664  -3.4664
    -3.4650  -3.4650  -3.4645  -3.4645  -3.4558  -3.4558  -3.4544  -3.4544
    -1.6111  -1.6111  -1.6085  -1.6085  -1.5287  -1.5287  -1.5226  -1.5226
    -1.5065  -1.5065  -1.5040  -1.5040  -1.4960  -1.4960  -1.4945  -1.4945
    -1.4731  -1.4731  -1.4698  -1.4698  -1.4154  -1.4154  -1.4142  -1.4142
    -1.4063  -1.4063  -1.4052  -1.4052  -1.3917  -1.3917  -1.3905  -1.3905
    -0.5905  -0.5905   0.6491   0.6491   1.1378   1.1378   1.5790   1.5790
     1.7116   1.7116   1.7961   1.7961   2.4459   2.4459   2.6957   2.6957
     4.4531   4.4531   4.8161   4.8161   5.0302   5.0302   5.2053   5.2053
     5.2936   5.2936   5.3731   5.3731   5.5254   5.5254   5.6005   5.6005
     6.1526   6.1526   6.1998   6.1998   6.4012   6.4012   6.4671   6.4671
     6.4972   6.4972   6.5179   6.5179   6.5478   6.5478   6.5664   6.5664
     6.6192   6.6192   6.6370   6.6370   6.6782   6.6782   6.7127   6.7127
     6.7298   6.7298   6.8147   6.8147   7.0707   7.0707   7.0726   7.0726
     7.0966   7.0966   7.1354   7.1354   7.1582   7.1582   7.1802   7.1802
     7.1962   7.1962   7.2561   7.2561   7.2802   7.2802   7.3550   7.3550
     7.3979   7.3979   7.4212   7.4212   7.4428   7.4428   7.4451   7.4451
     7.4604   7.4604   7.4657   7.4657   7.5374   7.5374   7.6336   7.6336
     7.6823   7.6823   7.7168   7.7168   7.7688   7.7688   7.7906   7.7906
     7.7950   7.7950   7.9185   7.9185   7.9259   7.9259   7.9472   7.9472
     7.9544   7.9544   7.9824   7.9824   7.9996   7.9996   8.0276   8.0276
     8.0391   8.0391   8.0632   8.0632   8.0906   8.0906   8.0995   8.0995
     8.1560   8.1560   8.1581   8.1581   8.2520   8.2520   8.2888   8.2888
     8.3113   8.3113   8.3286   8.3286   8.3316   8.3316   8.4967   8.4967
     9.2535   9.2535   9.7489   9.7489  10.7076  10.7076  11.2186  11.2186
    11.3797  11.3797  11.4802  11.4802  12.0499  12.0499  12.3059  12.3059
    13.9904  13.9904  14.1845  14.1845  14.1873  14.1873  14.2964  14.2964
    14.3182  14.3182  14.3531  14.3531  14.5077  14.5077  14.6334  14.6334
    14.7381  14.7381  14.7954  14.7954  14.8081  14.8081  14.8244  14.8244
    14.9723  14.9723  15.0413  15.0413  15.1056  15.1056  15.1147  15.1147
    15.1506  15.1506  15.1862  15.1862  15.4445  15.4445  15.4539  15.4539
    15.5037  15.5037  15.5614  15.5614  15.5868  15.5868  15.5995  15.5995
    15.7342  15.7342  15.7480  15.7480  15.7657  15.7657  15.8204  15.8204
    15.8312  15.8312  15.8495  15.8495  15.8859  15.8859  15.8922  15.8922
    15.8944  15.8944  15.9432  15.9432  16.0928  16.0928  16.1191  16.1191
    16.1368  16.1368  16.1552  16.1552  16.2658  16.2658  16.3181  16.3182

          k = 0.2500-0.5000-0.5000 ( 49512 PWs)   bands (ev):

   -16.9320 -16.9320 -16.9314 -16.9314 -16.9313 -16.9313 -16.9310 -16.9310
   -16.9148 -16.9148 -16.9145 -16.9145 -16.9144 -16.9144 -16.9140 -16.9140
   -14.9857 -14.9857 -14.9855 -14.9855 -12.1648 -12.1648 -12.1631 -12.1631
   -11.9230 -11.9230  -9.0075  -9.0075  -8.9479  -8.9479  -8.9445  -8.9445
    -8.8630  -8.8630  -8.8583  -8.8583  -8.8368  -8.8368  -8.7540  -8.7540
    -8.6894  -8.6894  -8.6720  -8.6720  -8.6707  -8.6707  -8.6213  -8.6213
    -8.5834  -8.5834  -8.5796  -8.5796  -8.5758  -8.5758  -8.4899  -8.4899
    -8.2472  -8.2472  -8.2466  -8.2466  -8.1872  -8.1872  -8.1440  -8.1440
    -7.9204  -7.9204  -7.9177  -7.9177  -7.8294  -7.8294  -7.5409  -7.5409
    -7.3011  -7.3011  -7.2915  -7.2915  -7.2612  -7.2612  -7.2079  -7.2079
    -7.1957  -7.1957  -7.1727  -7.1727  -7.1327  -7.1327  -7.1242  -7.1242
    -7.0695  -7.0695  -7.0555  -7.0555  -7.0489  -7.0489  -7.0340  -7.0340
    -7.0226  -7.0226  -7.0005  -7.0005  -6.9541  -6.9541  -5.4882  -5.4882
    -5.4876  -5.4876  -5.4865  -5.4865  -5.3652  -5.3652  -5.3613  -5.3613
    -5.3610  -5.3610  -5.3065  -5.3065  -5.2971  -5.2971  -5.2957  -5.2957
    -5.2001  -5.2001  -4.9801  -4.9801  -4.9718  -4.9718  -4.9692  -4.9692
    -4.8838  -4.8838  -4.8132  -4.8132  -4.7950  -4.7950  -4.7947  -4.7947
    -4.7451  -4.7451  -4.4686  -4.4686  -4.4672  -4.4672  -4.3802  -4.3802
    -3.5054  -3.5054  -3.4989  -3.4989  -3.4988  -3.4988  -3.4975  -3.4975
    -3.4606  -3.4606  -3.4597  -3.4597  -3.4594  -3.4594  -3.4576  -3.4576
    -1.5675  -1.5675  -1.5658  -1.5658  -1.5554  -1.5554  -1.5525  -1.5525
    -1.4982  -1.4982  -1.4945  -1.4945  -1.4901  -1.4901  -1.4859  -1.4859
    -1.4693  -1.4693  -1.4641  -1.4641  -1.4606  -1.4606  -1.4580  -1.4580
    -1.3960  -1.3960  -1.3944  -1.3944  -1.3871  -1.3871  -1.3859  -1.3859
    -0.5397  -0.5397   1.0056   1.0056   1.0232   1.0232   1.1540   1.1540
     1.5798   1.5798   2.0314   2.0314   2.0546   2.0546   2.1752   2.1752
     4.5944   4.5944   5.1764   5.1764   5.2059   5.2059   5.3246   5.3246
     5.7238   5.7238   5.7296   5.7296   5.9136   5.9136   6.1589   6.1589
     6.2154   6.2154   6.2577   6.2577   6.2880   6.2880   6.2895   6.2895
     6.4613   6.4613   6.4848   6.4848   6.4993   6.4993   6.5116   6.5116
     6.5464   6.5464   6.5837   6.5837   6.5976   6.5976   6.6624   6.6624
     6.6924   6.6924   6.8312   6.8312   6.9065   6.9065   6.9318   6.9318
     7.0698   7.0698   7.1134   7.1134   7.1197   7.1197   7.1257   7.1257
     7.1376   7.1376   7.1989   7.1989   7.2516   7.2516   7.2707   7.2707
     7.3630   7.3630   7.3641   7.3641   7.3711   7.3711   7.3745   7.3745
     7.4008   7.4008   7.4193   7.4193   7.4239   7.4239   7.4732   7.4732
     7.7610   7.7610   7.8219   7.8219   7.8285   7.8285   7.9035   7.9035
     7.9463   7.9463   7.9504   7.9504   7.9748   7.9748   8.0057   8.0057
     8.0128   8.0128   8.0176   8.0176   8.0458   8.0458   8.0551   8.0551
     8.0686   8.0686   8.0848   8.0848   8.0927   8.0927   8.2205   8.2205
     8.2347   8.2347   8.2427   8.2427   8.2498   8.2498   8.2524   8.2524
     8.2785   8.2785   8.2890   8.2890   8.3078   8.3078   8.3098   8.3098
     9.4181   9.4181  10.2900  10.2900  10.3171  10.3171  10.4776  10.4776
    11.1014  11.1014  11.6211  11.6211  11.6685  11.6685  11.7998  11.7998
    14.2115  14.2115  14.4404  14.4404  14.4615  14.4615  14.4652  14.4652
    14.4654  14.4654  14.6564  14.6564  14.6792  14.6792  14.7053  14.7053
    14.7355  14.7355  14.7398  14.7398  14.7504  14.7504  14.7857  14.7857
    14.7897  14.7897  14.8292  14.8292  14.8557  14.8557  14.8767  14.8767
    15.2774  15.2774  15.4325  15.4325  15.4661  15.4661  15.4776  15.4776
    15.5078  15.5078  15.5287  15.5287  15.5499  15.5499  15.5569  15.5569
    15.6025  15.6025  15.6612  15.6612  15.6707  15.6707  15.7111  15.7111
    15.7278  15.7278  15.7802  15.7802  15.7962  15.7962  15.8078  15.8078
    15.8990  15.8990  15.9080  15.9080  15.9439  15.9439  15.9613  15.9613
    16.1140  16.1140  16.2235  16.2235  16.2301  16.2301  16.2573  16.2573

          k =-0.5000-0.5000-0.5000 ( 49232 PWs)   bands (ev):

   -16.9237 -16.9237 -16.9231 -16.9231 -16.9231 -16.9231 -16.9231 -16.9231
   -16.9228 -16.9228 -16.9228 -16.9228 -16.9227 -16.9227 -16.9223 -16.9223
   -14.9855 -14.9855 -14.9855 -14.9855 -12.1631 -12.1631 -12.1631 -12.1631
   -11.9230 -11.9230  -8.9081  -8.9081  -8.8945  -8.8945  -8.8945  -8.8945
    -8.7558  -8.7558  -8.7557  -8.7557  -8.7530  -8.7530  -8.7530  -8.7530
    -8.6902  -8.6902  -8.6879  -8.6879  -8.6879  -8.6879  -8.6649  -8.6649
    -8.6628  -8.6628  -8.6628  -8.6628  -8.6214  -8.6214  -8.6214  -8.6214
    -8.2461  -8.2461  -8.2433  -8.2433  -8.2433  -8.2433  -8.0962  -8.0962
    -8.0962  -8.0962  -8.0960  -8.0960  -8.0433  -8.0433  -7.2651  -7.2651
    -7.2651  -7.2651  -7.2639  -7.2639  -7.2399  -7.2399  -7.2399  -7.2399
    -7.1524  -7.1524  -7.1282  -7.1282  -7.1282  -7.1282  -7.0853  -7.0853
    -7.0612  -7.0612  -7.0612  -7.0612  -7.0601  -7.0601  -7.0329  -7.0329
    -7.0329  -7.0329  -7.0008  -7.0008  -7.0008  -7.0008  -5.4869  -5.4869
    -5.4869  -5.4869  -5.4862  -5.4862  -5.3625  -5.3625  -5.3622  -5.3622
    -5.3622  -5.3622  -5.3088  -5.3088  -5.0056  -5.0056  -4.9971  -4.9971
    -4.9971  -4.9971  -4.8872  -4.8872  -4.8822  -4.8822  -4.8822  -4.8822
    -4.8148  -4.8148  -4.8110  -4.8110  -4.8110  -4.8110  -4.7926  -4.7926
    -4.7881  -4.7881  -4.7881  -4.7881  -4.7463  -4.7463  -4.7463  -4.7463
    -3.4862  -3.4862  -3.4800  -3.4800  -3.4800  -3.4800  -3.4788  -3.4788
    -3.4788  -3.4788  -3.4782  -3.4782  -3.4766  -3.4766  -3.4763  -3.4763
    -1.5478  -1.5478  -1.5478  -1.5478  -1.5394  -1.5394  -1.5394  -1.5394
    -1.5252  -1.5252  -1.5252  -1.5252  -1.5250  -1.5250  -1.5250  -1.5250
    -1.4257  -1.4257  -1.4254  -1.4254  -1.4226  -1.4226  -1.4205  -1.4205
    -1.4096  -1.4096  -1.4096  -1.4096  -1.4079  -1.4079  -1.4079  -1.4079
    -0.5135  -0.5135   1.2783   1.2783   1.3271   1.3271   1.3271   1.3271
     1.5185   1.5185   1.5185   1.5185   1.5216   1.5216   1.5756   1.5756
     5.3411   5.3411   5.6446   5.6446   5.6446   5.6446   5.8034   5.8034
     5.8034   5.8034   5.9986   5.9986   6.0707   6.0707   6.1150   6.1150
     6.2236   6.2236   6.2236   6.2236   6.2759   6.2759   6.2759   6.2759
     6.4186   6.4186   6.4186   6.4186   6.4541   6.4541   6.4831   6.4831
     6.4831   6.4831   6.5446   6.5446   6.5585   6.5585   6.5585   6.5585
     6.5636   6.5636   6.5636   6.5636   6.5840   6.5840   6.6647   6.6647
     7.0753   7.0753   7.0801   7.0801   7.0801   7.0801   7.1173   7.1173
     7.1173   7.1173   7.1195   7.1195   7.2899   7.2899   7.2899   7.2899
     7.3100   7.3100   7.3100   7.3100   7.3126   7.3126   7.3258   7.3258
     7.3258   7.3258   7.3269   7.3269   7.3408   7.3408   7.3408   7.3408
     7.9363   7.9363   7.9547   7.9547   7.9586   7.9586   7.9586   7.9586
     7.9939   7.9939   7.9939   7.9939   8.0708   8.0708   8.0708   8.0708
     8.0812   8.0812   8.0871   8.0871   8.0871   8.0871   8.1730   8.1730
     8.1904   8.1904   8.2169   8.2169   8.2234   8.2234   8.2234   8.2234
     8.2295   8.2295   8.2295   8.2295   8.2304   8.2304   8.2416   8.2416
     8.2579   8.2579   8.2579   8.2579   8.2715   8.2715   8.2715   8.2715
     9.4085   9.4085  10.5822  10.5822  10.6723  10.6723  10.6723  10.6723
    10.9097  10.9097  10.9097  10.9097  10.9125  10.9125  10.9718  10.9718
    14.4042  14.4042  14.6356  14.6356  14.6356  14.6356  14.6818  14.6818
    14.6818  14.6818  14.7167  14.7167  14.7167  14.7167  14.7352  14.7352
    14.7352  14.7352  14.7406  14.7406  14.7558  14.7558  14.7627  14.7627
    14.7627  14.7627  14.7701  14.7701  14.7756  14.7756  14.7756  14.7756
    15.2257  15.2257  15.3639  15.3639  15.4323  15.4323  15.4583  15.4583
    15.4583  15.4583  15.4683  15.4683  15.4796  15.4796  15.4815  15.4815
    15.4815  15.4815  15.7475  15.7475  15.7475  15.7475  15.7492  15.7492
    15.7495  15.7495  15.7504  15.7504  15.7504  15.7504  15.7628  15.7628
    15.8700  15.8700  15.8700  15.8700  15.9133  15.9133  15.9133  15.9133
    15.9329  15.9329  15.9329  15.9329  15.9354  15.9354  15.9354  15.9354

     the Fermi energy is     9.0028 ev
     (compare with:     9.1440 eV, computed in scf)

     Writing all to output data dir ./out/bpbo.save/ :
     XML data file, pseudopotentials, collected wavefunctions

     init_run     :      7.51s CPU      6.58s WALL (       1 calls)
     electrons    :   6448.14s CPU   3708.37s WALL (       1 calls)

     Called by init_run:
     wfcinit      :      0.00s CPU      0.00s WALL (       1 calls)
     potinit      :      3.31s CPU      2.53s WALL (       1 calls)
     hinit0       :      1.55s CPU      1.42s WALL (       1 calls)

     Called by electrons:
     c_bands      :   6447.98s CPU   3707.82s WALL (       1 calls)
     v_of_rho     :      1.73s CPU      1.26s WALL (       1 calls)
     newd         :      1.87s CPU      1.80s WALL (       1 calls)

     Called by c_bands:
     init_us_2    :      0.25s CPU      0.35s WALL (       1 calls)
     cegterg      :   6109.29s CPU   3275.11s WALL (       6 calls)

     Called by *egterg:
     cdiaghg      :     70.00s CPU     39.88s WALL (     121 calls)
     h_psi        :   3968.42s CPU   2168.38s WALL (     127 calls)
     s_psi        :    319.40s CPU    163.84s WALL (     127 calls)
     g_psi        :     16.78s CPU      8.49s WALL (     120 calls)

     Called by h_psi:
     h_psi:calbec :    328.72s CPU    166.94s WALL (     127 calls)
     vloc_psi     :   3297.19s CPU   1825.61s WALL (     127 calls)
     add_vuspsi   :    317.99s CPU    162.41s WALL (     127 calls)

     General routines
     calbec       :    328.71s CPU    166.94s WALL (     127 calls)
     fft          :      1.84s CPU      1.28s WALL (      19 calls)
     ffts         :      0.17s CPU      0.10s WALL (       4 calls)
     fftw         :   1545.17s CPU    800.63s WALL (   91132 calls)
     interpolate  :      0.69s CPU      0.43s WALL (       4 calls)
     davcio       :      0.00s CPU      0.43s WALL (       2 calls)

     Parallel routines

     PWSCF        :   6461.70s CPU   3907.48s WALL


   This run was terminated on:   7:26:35  23Jun2025            

=------------------------------------------------------------------------------=
   JOB DONE.
=------------------------------------------------------------------------------=
