
     Program PWSCF v.7.3.1 starts on  6Dec2024 at 14:47:21 

     This program is part of the open-source Quantum ESPRESSO suite
     for quantum simulation of materials; please cite
         "P. Giannozzi et al., J. Phys.:Condens. Matter 21 395502 (2009);
         "P. Giannozzi et al., J. Phys.:Condens. Matter 29 465901 (2017);
         "P. Giannozzi et al., J. Chem. Phys. 152 154105 (2020);
          URL http://www.quantum-espresso.org", 
     in publications or presentations arising from this work. More details at
     http://www.quantum-espresso.org/quote

     Parallel version (MPI & OpenMP), running on      32 processor cores
     Number of MPI processes:                32
     Threads/MPI process:                     1

     MPI processes distributed on     8 nodes
     5918 MiB available memory on the printing compute node when the environment starts

     Reading input from BPO.scf.in

     Current dimensions of program PWSCF are:
     Max number of different atomic species (ntypx) = 10
     Max number of k-points (npk) =  40000
     Max angular momentum in pseudopotentials (lmaxx) =  4
     file Ba.rel-pbe-spn-rrkjus_psl.1.0.0.UPF: wavefunction(s)  5S 6S renormalized
     file Pb.rel-pbe-dn-rrkjus_psl.1.0.0.UPF: wavefunction(s)  6S 5D 5D renormalized
     Message from routine setup:
     using ibrav=0 with symmetry is DISCOURAGED, use correct ibrav instead

     K-points division:     npool     =       2
     R & G space division:  proc/nbgrp/npool/nimage =      16
     Subspace diagonalization in iterative solution of the eigenvalue problem:
     a serial algorithm will be used


     Parallelization info
     --------------------
     sticks:   dense  smooth     PW     G-vecs:    dense   smooth      PW
     Min         202     101     30                 8670     3063     480
     Max         203     102     31                 8673     3066     482
     Sum        3241    1617    481               138745    49029    7689

     Using Slab Decomposition



     bravais-lattice index     =            0
     lattice parameter (alat)  =       8.2396  a.u.
     unit-cell volume          =     559.4002 (a.u.)^3
     number of atoms/cell      =            5
     number of atomic types    =            3
     number of electrons       =        42.00
     number of Kohn-Sham states=           50
     kinetic-energy cutoff     =      75.0000  Ry
     charge density cutoff     =     600.0000  Ry
     scf convergence threshold =      1.0E-10
     mixing beta               =       0.1000
     number of iterations used =            8  plain     mixing
     Exchange-correlation= PBE
                           (   1   4   3   4   0   0   0)
     Non magnetic calculation with spin-orbit


     celldm(1)=   8.239627  celldm(2)=   0.000000  celldm(3)=   0.000000
     celldm(4)=   0.000000  celldm(5)=   0.000000  celldm(6)=   0.000000

     crystal axes: (cart. coord. in units of alat)
               a(1) = (   1.000000   0.000000   0.000000 )  
               a(2) = (   0.000000   1.000000   0.000000 )  
               a(3) = (   0.000000   0.000000   1.000000 )  

     reciprocal axes: (cart. coord. in units 2 pi/alat)
               b(1) = (  1.000000  0.000000  0.000000 )  
               b(2) = (  0.000000  1.000000  0.000000 )  
               b(3) = (  0.000000  0.000000  1.000000 )  


     PseudoPot. # 1 for Ba read from file:
     ./pseudo/Ba.rel-pbe-spn-rrkjus_psl.1.0.0.UPF
     MD5 check sum: 94cfde5357c22a4bf03ae8062d9f9c82
     Pseudo is Ultrasoft + core correction, Zval = 10.0
     Generated using &quot;atomic&quot; code by A. Dal Corso  v.6.2.2
     Using radial grid of 1251 points, 11 beta functions with: 
                l(1) =   0
                l(2) =   0
                l(3) =   0
                l(4) =   1
                l(5) =   1
                l(6) =   1
                l(7) =   1
                l(8) =   2
                l(9) =   2
               l(10) =   2
               l(11) =   2
     Q(r) pseudized with 0 coefficients 


     PseudoPot. # 2 for Pb read from file:
     ./pseudo/Pb.rel-pbe-dn-rrkjus_psl.1.0.0.UPF
     MD5 check sum: e88f3c92f89adaff2c2c587a7f90e9c0
     Pseudo is Ultrasoft + core correction, Zval = 14.0
     Generated using &quot;atomic&quot; code by A. Dal Corso  v.6.3
     Using radial grid of 1281 points, 10 beta functions with: 
                l(1) =   0
                l(2) =   0
                l(3) =   1
                l(4) =   1
                l(5) =   1
                l(6) =   1
                l(7) =   2
                l(8) =   2
                l(9) =   2
               l(10) =   2
     Q(r) pseudized with 0 coefficients 


     PseudoPot. # 3 for O  read from file:
     ./pseudo/O.rel-pbe-n-rrkjus_psl.1.0.0.UPF
     MD5 check sum: 7bb44c19b4019dea92d8afd4a1c1ae3f
     Pseudo is Ultrasoft + core correction, Zval =  6.0
     Generated using &quot;atomic&quot; code by A. Dal Corso  v.6.3MaX
     Using radial grid of 1095 points,  6 beta functions with: 
                l(1) =   0
                l(2) =   0
                l(3) =   1
                l(4) =   1
                l(5) =   1
                l(6) =   1
     Q(r) pseudized with 0 coefficients 


     atomic species   valence    mass     pseudopotential
     Ba               10.00   137.32700     Ba( 1.00)
     Pb               14.00   207.20000     Pb( 1.00)
     O                 6.00    15.99940     O ( 1.00)

     48 Sym. Ops., with inversion, found



   Cartesian axes

     site n.     atom                  positions (alat units)
         1        Ba     tau(   1) = (   0.5000000   0.5000000   0.5000000  )
         2        Pb     tau(   2) = (   0.0000000   0.0000000   0.0000000  )
         3        O      tau(   3) = (   0.5000000   0.0000000   0.0000000  )
         4        O      tau(   4) = (   0.0000000   0.5000000   0.0000000  )
         5        O      tau(   5) = (   0.0000000   0.0000000   0.5000000  )

     number of k points=   165  Marzari-Vanderbilt smearing, width (Ry)=  0.0073

     Number of k-points >= 100: set verbosity='high' to print them.

     Dense  grid:   138745 G-vectors     FFT dimensions: (  72,  72,  72)

     Smooth grid:    49029 G-vectors     FFT dimensions: (  45,  45,  45)

     Estimated max dynamical RAM per process >     127.99 MB

     Estimated total dynamical RAM >       3.87 GB

     Initial potential from superposition of free atoms

     starting charge      41.9819, renormalised to      42.0000
     Starting wfcs are   52 randomized atomic wfcs

     total cpu time spent up to now is       18.5 secs

     per-process dynamical memory:   122.5 Mb

     Self-consistent Calculation

     iteration #  1     ecut=    75.00 Ry     beta= 0.10
     Davidson diagonalization with overlap
     ethr =  1.00E-02,  avg # of iterations =  7.0

     total cpu time spent up to now is       71.6 secs

     total energy              =    -295.20813714 Ry
     estimated scf accuracy    <       1.72501593 Ry

     iteration #  2     ecut=    75.00 Ry     beta= 0.10
     Davidson diagonalization with overlap
     ethr =  4.11E-03,  avg # of iterations =  2.0

     total cpu time spent up to now is      114.6 secs

     total energy              =    -294.97225057 Ry
     estimated scf accuracy    <       0.80701340 Ry

     iteration #  3     ecut=    75.00 Ry     beta= 0.10
     Davidson diagonalization with overlap
     ethr =  1.92E-03,  avg # of iterations =  6.3

     total cpu time spent up to now is      169.7 secs

     total energy              =    -295.15707011 Ry
     estimated scf accuracy    <       0.04077715 Ry

     iteration #  4     ecut=    75.00 Ry     beta= 0.10
     Davidson diagonalization with overlap
     c_bands:  1 eigenvalues not converged
     c_bands:  2 eigenvalues not converged
     c_bands:  2 eigenvalues not converged
     c_bands:  3 eigenvalues not converged
     c_bands:  1 eigenvalues not converged
     c_bands:  2 eigenvalues not converged
     c_bands:  3 eigenvalues not converged
     c_bands:  2 eigenvalues not converged
     ethr =  9.71E-05,  avg # of iterations = 13.4

     total cpu time spent up to now is      260.6 secs

     total energy              =    -295.17083789 Ry
     estimated scf accuracy    <       0.07433501 Ry

     iteration #  5     ecut=    75.00 Ry     beta= 0.10
     Davidson diagonalization with overlap
     ethr =  9.71E-05,  avg # of iterations =  6.1

     total cpu time spent up to now is      332.9 secs

     total energy              =    -295.18857592 Ry
     estimated scf accuracy    <       0.07870468 Ry

     iteration #  6     ecut=    75.00 Ry     beta= 0.10
     Davidson diagonalization with overlap
     ethr =  9.71E-05,  avg # of iterations =  2.0

     total cpu time spent up to now is      375.8 secs

     total energy              =    -295.19719645 Ry
     estimated scf accuracy    <       0.01442727 Ry

     iteration #  7     ecut=    75.00 Ry     beta= 0.10
     Davidson diagonalization with overlap
     ethr =  3.44E-05,  avg # of iterations =  2.4

     total cpu time spent up to now is      420.3 secs

     total energy              =    -295.18668895 Ry
     estimated scf accuracy    <       0.01703544 Ry

     iteration #  8     ecut=    75.00 Ry     beta= 0.10
     Davidson diagonalization with overlap
     c_bands:  2 eigenvalues not converged
     c_bands:  1 eigenvalues not converged
     ethr =  3.44E-05,  avg # of iterations =  6.2

     total cpu time spent up to now is      490.2 secs

     total energy              =    -295.19892551 Ry
     estimated scf accuracy    <       0.02149600 Ry

     iteration #  9     ecut=    75.00 Ry     beta= 0.10
     Davidson diagonalization with overlap
     ethr =  3.44E-05,  avg # of iterations =  1.2

     total cpu time spent up to now is      530.6 secs

     total energy              =    -295.19843743 Ry
     estimated scf accuracy    <       0.01485315 Ry

     iteration # 10     ecut=    75.00 Ry     beta= 0.10
     Davidson diagonalization with overlap
     ethr =  3.44E-05,  avg # of iterations =  1.1

     total cpu time spent up to now is      570.5 secs

     total energy              =    -295.19562477 Ry
     estimated scf accuracy    <       0.01191362 Ry

     iteration # 11     ecut=    75.00 Ry     beta= 0.10
     Davidson diagonalization with overlap
     ethr =  2.84E-05,  avg # of iterations =  1.3

     total cpu time spent up to now is      611.1 secs

     total energy              =    -295.19599496 Ry
     estimated scf accuracy    <       0.00465810 Ry

     iteration # 12     ecut=    75.00 Ry     beta= 0.10
     Davidson diagonalization with overlap
     c_bands:  2 eigenvalues not converged
     c_bands:  2 eigenvalues not converged
     ethr =  1.11E-05,  avg # of iterations =  2.3

     total cpu time spent up to now is      653.7 secs

     total energy              =    -295.19461461 Ry
     estimated scf accuracy    <       0.00389149 Ry

     iteration # 13     ecut=    75.00 Ry     beta= 0.10
     Davidson diagonalization with overlap
     c_bands:  1 eigenvalues not converged
     c_bands:  1 eigenvalues not converged
     c_bands:  2 eigenvalues not converged
     c_bands:  1 eigenvalues not converged
     c_bands:  2 eigenvalues not converged
     c_bands:  1 eigenvalues not converged
     c_bands:  1 eigenvalues not converged
     c_bands:  1 eigenvalues not converged
     ethr =  9.27E-06,  avg # of iterations =  6.9

     total cpu time spent up to now is      712.6 secs

     total energy              =    -295.19570413 Ry
     estimated scf accuracy    <       0.00000284 Ry

     iteration # 14     ecut=    75.00 Ry     beta= 0.10
     Davidson diagonalization with overlap
     c_bands:  1 eigenvalues not converged
     c_bands:  1 eigenvalues not converged
     c_bands:  2 eigenvalues not converged
     c_bands:  1 eigenvalues not converged
     c_bands:  1 eigenvalues not converged
     c_bands:  2 eigenvalues not converged
     c_bands:  2 eigenvalues not converged
     c_bands:  1 eigenvalues not converged
     c_bands:  2 eigenvalues not converged
     c_bands:  1 eigenvalues not converged
     c_bands:  2 eigenvalues not converged
     c_bands:  2 eigenvalues not converged
     c_bands:  2 eigenvalues not converged
     c_bands:  1 eigenvalues not converged
     c_bands:  2 eigenvalues not converged
     c_bands:  2 eigenvalues not converged
     ethr =  6.75E-09,  avg # of iterations = 14.5

     total cpu time spent up to now is      847.1 secs

     total energy              =    -295.19599163 Ry
     estimated scf accuracy    <       0.00023424 Ry

     iteration # 15     ecut=    75.00 Ry     beta= 0.10
     Davidson diagonalization with overlap
     c_bands:  2 eigenvalues not converged
     c_bands:  2 eigenvalues not converged
     c_bands:  1 eigenvalues not converged
     c_bands:  2 eigenvalues not converged
     c_bands:  2 eigenvalues not converged
     c_bands:  2 eigenvalues not converged
     c_bands:  1 eigenvalues not converged
     c_bands:  1 eigenvalues not converged
     c_bands:  1 eigenvalues not converged
     ethr =  6.75E-09,  avg # of iterations =  3.8

     total cpu time spent up to now is      893.3 secs

     total energy              =    -295.19592025 Ry
     estimated scf accuracy    <       0.00026332 Ry

     iteration # 16     ecut=    75.00 Ry     beta= 0.10
     Davidson diagonalization with overlap
     c_bands:  1 eigenvalues not converged
     c_bands:  1 eigenvalues not converged
     ethr =  6.75E-09,  avg # of iterations =  8.4

     total cpu time spent up to now is      973.7 secs

     total energy              =    -295.19591333 Ry
     estimated scf accuracy    <       0.00005249 Ry

     iteration # 17     ecut=    75.00 Ry     beta= 0.10
     Davidson diagonalization with overlap
     c_bands:  1 eigenvalues not converged
     c_bands:  1 eigenvalues not converged
     ethr =  6.75E-09,  avg # of iterations =  6.2

     total cpu time spent up to now is     1046.1 secs

     total energy              =    -295.19592263 Ry
     estimated scf accuracy    <       0.00000042 Ry

     iteration # 18     ecut=    75.00 Ry     beta= 0.10
     Davidson diagonalization with overlap
     ethr =  1.01E-09,  avg # of iterations =  6.2

     total cpu time spent up to now is     1103.3 secs

     total energy              =    -295.19592276 Ry
     estimated scf accuracy    <       0.00000032 Ry

     iteration # 19     ecut=    75.00 Ry     beta= 0.10
     Davidson diagonalization with overlap
     ethr =  7.58E-10,  avg # of iterations =  2.2

     total cpu time spent up to now is     1147.2 secs

     total energy              =    -295.19592277 Ry
     estimated scf accuracy    <       0.00000030 Ry

     iteration # 20     ecut=    75.00 Ry     beta= 0.10
     Davidson diagonalization with overlap
     ethr =  7.16E-10,  avg # of iterations =  2.1

     total cpu time spent up to now is     1191.2 secs

     total energy              =    -295.19592280 Ry
     estimated scf accuracy    <       0.00000032 Ry

     iteration # 21     ecut=    75.00 Ry     beta= 0.10
     Davidson diagonalization with overlap
     ethr =  7.16E-10,  avg # of iterations =  7.0

     total cpu time spent up to now is     1269.3 secs

     total energy              =    -295.19592419 Ry
     estimated scf accuracy    <       0.00000456 Ry

     iteration # 22     ecut=    75.00 Ry     beta= 0.10
     Davidson diagonalization with overlap
     ethr =  7.16E-10,  avg # of iterations =  1.9

     total cpu time spent up to now is     1310.6 secs

     total energy              =    -295.19592239 Ry
     estimated scf accuracy    <       0.00000529 Ry

     iteration # 23     ecut=    75.00 Ry     beta= 0.10
     Davidson diagonalization with overlap
     ethr =  7.16E-10,  avg # of iterations =  5.0

     total cpu time spent up to now is     1375.7 secs

     total energy              =    -295.19592256 Ry
     estimated scf accuracy    <       0.00000058 Ry

     iteration # 24     ecut=    75.00 Ry     beta= 0.10
     Davidson diagonalization with overlap
     ethr =  7.16E-10,  avg # of iterations =  5.0

     total cpu time spent up to now is     1435.3 secs

     total energy              =    -295.19592269 Ry
     estimated scf accuracy    <       0.00000006 Ry

     iteration # 25     ecut=    75.00 Ry     beta= 0.10
     Davidson diagonalization with overlap
     ethr =  1.54E-10,  avg # of iterations =  4.6

     total cpu time spent up to now is     1497.0 secs

     total energy              =    -295.19592276 Ry
     estimated scf accuracy    <       0.00000011 Ry

     iteration # 26     ecut=    75.00 Ry     beta= 0.10
     Davidson diagonalization with overlap
     ethr =  1.54E-10,  avg # of iterations =  1.1

     total cpu time spent up to now is     1536.8 secs

     total energy              =    -295.19592272 Ry
     estimated scf accuracy    <       0.00000014 Ry

     iteration # 27     ecut=    75.00 Ry     beta= 0.10
     Davidson diagonalization with overlap
     ethr =  1.54E-10,  avg # of iterations =  1.2

     total cpu time spent up to now is     1577.0 secs

     total energy              =    -295.19592276 Ry
     estimated scf accuracy    <       0.00000005 Ry

     iteration # 28     ecut=    75.00 Ry     beta= 0.10
     Davidson diagonalization with overlap
     ethr =  1.14E-10,  avg # of iterations =  1.1

     total cpu time spent up to now is     1616.7 secs

     total energy              =    -295.19592275 Ry
     estimated scf accuracy    <       0.00000012 Ry

     iteration # 29     ecut=    75.00 Ry     beta= 0.10
     Davidson diagonalization with overlap
     ethr =  1.14E-10,  avg # of iterations =  1.0

     total cpu time spent up to now is     1656.3 secs

     total energy              =    -295.19592269 Ry
     estimated scf accuracy    <       0.00000010 Ry

     iteration # 30     ecut=    75.00 Ry     beta= 0.10
     Davidson diagonalization with overlap
     c_bands:  1 eigenvalues not converged
     ethr =  1.14E-10,  avg # of iterations =  5.3

     total cpu time spent up to now is     1722.4 secs

     total energy              =    -295.19592272 Ry
     estimated scf accuracy    <       0.00000005 Ry

     iteration # 31     ecut=    75.00 Ry     beta= 0.10
     Davidson diagonalization with overlap
     c_bands:  1 eigenvalues not converged
     ethr =  1.14E-10,  avg # of iterations =  2.1

     total cpu time spent up to now is     1765.7 secs

     total energy              =    -295.19592273 Ry
     estimated scf accuracy    <          2.9E-09 Ry

     iteration # 32     ecut=    75.00 Ry     beta= 0.10
     Davidson diagonalization with overlap
     ethr =  6.82E-12,  avg # of iterations =  8.3

     total cpu time spent up to now is     1846.5 secs

     total energy              =    -295.19592274 Ry
     estimated scf accuracy    <       0.00000004 Ry

     iteration # 33     ecut=    75.00 Ry     beta= 0.10
     Davidson diagonalization with overlap
     ethr =  6.82E-12,  avg # of iterations =  1.2

     total cpu time spent up to now is     1886.4 secs

     total energy              =    -295.19592274 Ry
     estimated scf accuracy    <       0.00000003 Ry

     iteration # 34     ecut=    75.00 Ry     beta= 0.10
     Davidson diagonalization with overlap
     ethr =  6.82E-12,  avg # of iterations =  5.4

     total cpu time spent up to now is     1940.8 secs

     total energy              =    -295.19592273 Ry
     estimated scf accuracy    <       0.00000001 Ry

     iteration # 35     ecut=    75.00 Ry     beta= 0.10
     Davidson diagonalization with overlap
     ethr =  6.82E-12,  avg # of iterations =  5.3

     total cpu time spent up to now is     1997.4 secs

     total energy              =    -295.19592273 Ry
     estimated scf accuracy    <          2.5E-09 Ry

     iteration # 36     ecut=    75.00 Ry     beta= 0.10
     Davidson diagonalization with overlap
     ethr =  6.02E-12,  avg # of iterations =  5.1

     total cpu time spent up to now is     2060.4 secs

     total energy              =    -295.19592274 Ry
     estimated scf accuracy    <          2.9E-09 Ry

     iteration # 37     ecut=    75.00 Ry     beta= 0.10
     Davidson diagonalization with overlap
     ethr =  6.02E-12,  avg # of iterations =  2.2

     total cpu time spent up to now is     2105.3 secs

     total energy              =    -295.19592274 Ry
     estimated scf accuracy    <          1.6E-10 Ry

     iteration # 38     ecut=    75.00 Ry     beta= 0.10
     Davidson diagonalization with overlap
     ethr =  3.79E-13,  avg # of iterations =  5.0

     total cpu time spent up to now is     2166.0 secs

     End of self-consistent calculation

     Number of k-points >= 100: set verbosity='high' to print the bands.

     the Fermi energy is     8.5617 ev

!    total energy              =    -295.19592274 Ry
     estimated scf accuracy    <          4.4E-11 Ry
     smearing contrib. (-TS)   =       0.00064122 Ry
     internal energy E=F+TS    =    -295.19656395 Ry

     The total energy is F=E-TS. E is the sum of the following terms:
     one-electron contribution =     -72.73807868 Ry
     hartree contribution      =      65.63876111 Ry
     xc contribution           =     -75.13947533 Ry
     ewald contribution        =    -212.95777106 Ry

     convergence has been achieved in  38 iterations

     Writing all to output data dir ./tmp/BaPbO3.save/ :
     XML data file, charge density, pseudopotentials, collected wavefunctions

     init_run     :     10.29s CPU     17.54s WALL (       1 calls)
     electrons    :   1259.32s CPU   2147.77s WALL (       1 calls)

     Called by init_run:
     wfcinit      :      9.19s CPU     15.99s WALL (       1 calls)
     potinit      :      0.26s CPU      0.40s WALL (       1 calls)
     hinit0       :      0.65s CPU      0.92s WALL (       1 calls)

     Called by electrons:
     c_bands      :   1067.89s CPU   1823.71s WALL (      38 calls)
     sum_band     :    179.07s CPU    305.96s WALL (      38 calls)
     v_of_rho     :      2.12s CPU      3.33s WALL (      39 calls)
     newd         :      6.27s CPU      7.98s WALL (      39 calls)
     mix_rho      :      1.70s CPU      2.76s WALL (      38 calls)

     Called by c_bands:
     init_us_2    :      3.06s CPU      3.44s WALL (    6391 calls)
     cegterg      :   1016.46s CPU   1749.59s WALL (    3154 calls)

     Called by *egterg:
     cdiaghg      :     41.44s CPU     45.31s WALL (   17783 calls)
     h_psi        :    851.76s CPU   1545.30s WALL (   17866 calls)
     s_psi        :     15.82s CPU     16.58s WALL (   17866 calls)
     g_psi        :      1.89s CPU      2.28s WALL (   14629 calls)

     Called by h_psi:
     h_psi:calbec :     40.02s CPU     59.35s WALL (   17866 calls)
     vloc_psi     :    798.56s CPU   1470.73s WALL (   17866 calls)
     add_vuspsi   :     12.14s CPU     13.83s WALL (   17866 calls)

     General routines
     calbec       :     54.69s CPU     80.38s WALL (   21020 calls)
     fft          :      4.61s CPU      7.84s WALL (     961 calls)
     ffts         :      0.61s CPU      1.05s WALL (     308 calls)
     fftw         :    906.67s CPU   1668.28s WALL ( 2141016 calls)
     interpolate  :      0.96s CPU      1.62s WALL (     156 calls)

     Parallel routines

     PWSCF        :   1284.25s CPU   2226.54s WALL


   This run was terminated on:  15:24:27   6Dec2024            

=------------------------------------------------------------------------------=
   JOB DONE.
=------------------------------------------------------------------------------=
