File written on 23Dec2024 at 08:20:21 

calc_only_A  :  F

begin real_lattice
   4.3602227   0.0000000   0.0000000
   0.0000000   4.3602227   0.0000000
   0.0000000   0.0000000   4.3602227
end real_lattice

begin recip_lattice
   1.4410240   0.0000000   0.0000000
   0.0000000   1.4410240   0.0000000
   0.0000000   0.0000000   1.4410240
end recip_lattice

begin kpoints
  4096
    0.00000000    0.00000000    0.00000000
    0.00000000    0.00000000    0.06250000
    0.00000000    0.00000000    0.12500000
    0.00000000    0.00000000    0.18750000
    0.00000000    0.00000000    0.25000000
    0.00000000    0.00000000    0.31250000
    0.00000000    0.00000000    0.37500000
    0.00000000    0.00000000    0.43750000
    0.00000000    0.00000000    0.50000000
    0.00000000    0.00000000    0.56250000
    0.00000000    0.00000000    0.62500000
    0.00000000    0.00000000    0.68750000
    0.00000000    0.00000000    0.75000000
    0.00000000    0.00000000    0.81250000
    0.00000000    0.00000000    0.87500000
    0.00000000    0.00000000    0.93750000
    0.00000000    0.06250000    0.00000000
    0.00000000    0.06250000    0.06250000
    0.00000000    0.06250000    0.12500000
    0.00000000    0.06250000    0.18750000
    0.00000000    0.06250000    0.25000000
    0.00000000    0.06250000    0.31250000
    0.00000000    0.06250000    0.37500000
    0.00000000    0.06250000    0.43750000
    0.00000000    0.06250000    0.50000000
    0.00000000    0.06250000    0.56250000
    0.00000000    0.06250000    0.62500000
    0.00000000    0.06250000    0.68750000
    0.00000000    0.06250000    0.75000000
    0.00000000    0.06250000    0.81250000
    0.00000000    0.06250000    0.87500000
    0.00000000    0.06250000    0.93750000
    0.00000000    0.12500000    0.00000000
    0.00000000    0.12500000    0.06250000
    0.00000000    0.12500000    0.12500000
    0.00000000    0.12500000    0.18750000
    0.00000000    0.12500000    0.25000000
    0.00000000    0.12500000    0.31250000
    0.00000000    0.12500000    0.37500000
    0.00000000    0.12500000    0.43750000
    0.00000000    0.12500000    0.50000000
    0.00000000    0.12500000    0.56250000
    0.00000000    0.12500000    0.62500000
    0.00000000    0.12500000    0.68750000
    0.00000000    0.12500000    0.75000000
    0.00000000    0.12500000    0.81250000
    0.00000000    0.12500000    0.87500000
    0.00000000    0.12500000    0.93750000
    0.00000000    0.18750000    0.00000000
    0.00000000    0.18750000    0.06250000
    0.00000000    0.18750000    0.12500000
    0.00000000    0.18750000    0.18750000
    0.00000000    0.18750000    0.25000000
    0.00000000    0.18750000    0.31250000
    0.00000000    0.18750000    0.37500000
    0.00000000    0.18750000    0.43750000
    0.00000000    0.18750000    0.50000000
    0.00000000    0.18750000    0.56250000
    0.00000000    0.18750000    0.62500000
    0.00000000    0.18750000    0.68750000
    0.00000000    0.18750000    0.75000000
    0.00000000    0.18750000    0.81250000
    0.00000000    0.18750000    0.87500000
    0.00000000    0.18750000    0.93750000
    0.00000000    0.25000000    0.00000000
    0.00000000    0.25000000    0.06250000
    0.00000000    0.25000000    0.12500000
    0.00000000    0.25000000    0.18750000
    0.00000000    0.25000000    0.25000000
    0.00000000    0.25000000    0.31250000
    0.00000000    0.25000000    0.37500000
    0.00000000    0.25000000    0.43750000
    0.00000000    0.25000000    0.50000000
    0.00000000    0.25000000    0.56250000
    0.00000000    0.25000000    0.62500000
    0.00000000    0.25000000    0.68750000
    0.00000000    0.25000000    0.75000000
    0.00000000    0.25000000    0.81250000
    0.00000000    0.25000000    0.87500000
    0.00000000    0.25000000    0.93750000
    0.00000000    0.31250000    0.00000000
    0.00000000    0.31250000    0.06250000
    0.00000000    0.31250000    0.12500000
    0.00000000    0.31250000    0.18750000
    0.00000000    0.31250000    0.25000000
    0.00000000    0.31250000    0.31250000
    0.00000000    0.31250000    0.37500000
    0.00000000    0.31250000    0.43750000
    0.00000000    0.31250000    0.50000000
    0.00000000    0.31250000    0.56250000
    0.00000000    0.31250000    0.62500000
    0.00000000    0.31250000    0.68750000
    0.00000000    0.31250000    0.75000000
    0.00000000    0.31250000    0.81250000
    0.00000000    0.31250000    0.87500000
    0.00000000    0.31250000    0.93750000
    0.00000000    0.37500000    0.00000000
    0.00000000    0.37500000    0.06250000
    0.00000000    0.37500000    0.12500000
    0.00000000    0.37500000    0.18750000
    0.00000000    0.37500000    0.25000000
    0.00000000    0.37500000    0.31250000
    0.00000000    0.37500000    0.37500000
    0.00000000    0.37500000    0.43750000
    0.00000000    0.37500000    0.50000000
    0.00000000    0.37500000    0.56250000
    0.00000000    0.37500000    0.62500000
    0.00000000    0.37500000    0.68750000
    0.00000000    0.37500000    0.75000000
    0.00000000    0.37500000    0.81250000
    0.00000000    0.37500000    0.87500000
    0.00000000    0.37500000    0.93750000
    0.00000000    0.43750000    0.00000000
    0.00000000    0.43750000    0.06250000
    0.00000000    0.43750000    0.12500000
    0.00000000    0.43750000    0.18750000
    0.00000000    0.43750000    0.25000000
    0.00000000    0.43750000    0.31250000
    0.00000000    0.43750000    0.37500000
    0.00000000    0.43750000    0.43750000
    0.00000000    0.43750000    0.50000000
    0.00000000    0.43750000    0.56250000
    0.00000000    0.43750000    0.62500000
    0.00000000    0.43750000    0.68750000
    0.00000000    0.43750000    0.75000000
    0.00000000    0.43750000    0.81250000
    0.00000000    0.43750000    0.87500000
    0.00000000    0.43750000    0.93750000
    0.00000000    0.50000000    0.00000000
    0.00000000    0.50000000    0.06250000
    0.00000000    0.50000000    0.12500000
    0.00000000    0.50000000    0.18750000
    0.00000000    0.50000000    0.25000000
    0.00000000    0.50000000    0.31250000
    0.00000000    0.50000000    0.37500000
    0.00000000    0.50000000    0.43750000
    0.00000000    0.50000000    0.50000000
    0.00000000    0.50000000    0.56250000
    0.00000000    0.50000000    0.62500000
    0.00000000    0.50000000    0.68750000
    0.00000000    0.50000000    0.75000000
    0.00000000    0.50000000    0.81250000
    0.00000000    0.50000000    0.87500000
    0.00000000    0.50000000    0.93750000
    0.00000000    0.56250000    0.00000000
    0.00000000    0.56250000    0.06250000
    0.00000000    0.56250000    0.12500000
    0.00000000    0.56250000    0.18750000
    0.00000000    0.56250000    0.25000000
    0.00000000    0.56250000    0.31250000
    0.00000000    0.56250000    0.37500000
    0.00000000    0.56250000    0.43750000
    0.00000000    0.56250000    0.50000000
    0.00000000    0.56250000    0.56250000
    0.00000000    0.56250000    0.62500000
    0.00000000    0.56250000    0.68750000
    0.00000000    0.56250000    0.75000000
    0.00000000    0.56250000    0.81250000
    0.00000000    0.56250000    0.87500000
    0.00000000    0.56250000    0.93750000
    0.00000000    0.62500000    0.00000000
    0.00000000    0.62500000    0.06250000
    0.00000000    0.62500000    0.12500000
    0.00000000    0.62500000    0.18750000
    0.00000000    0.62500000    0.25000000
    0.00000000    0.62500000    0.31250000
    0.00000000    0.62500000    0.37500000
    0.00000000    0.62500000    0.43750000
    0.00000000    0.62500000    0.50000000
    0.00000000    0.62500000    0.56250000
    0.00000000    0.62500000    0.62500000
    0.00000000    0.62500000    0.68750000
    0.00000000    0.62500000    0.75000000
    0.00000000    0.62500000    0.81250000
    0.00000000    0.62500000    0.87500000
    0.00000000    0.62500000    0.93750000
    0.00000000    0.68750000    0.00000000
    0.00000000    0.68750000    0.06250000
    0.00000000    0.68750000    0.12500000
    0.00000000    0.68750000    0.18750000
    0.00000000    0.68750000    0.25000000
    0.00000000    0.68750000    0.31250000
    0.00000000    0.68750000    0.37500000
    0.00000000    0.68750000    0.43750000
    0.00000000    0.68750000    0.50000000
    0.00000000    0.68750000    0.56250000
    0.00000000    0.68750000    0.62500000
    0.00000000    0.68750000    0.68750000
    0.00000000    0.68750000    0.75000000
    0.00000000    0.68750000    0.81250000
    0.00000000    0.68750000    0.87500000
    0.00000000    0.68750000    0.93750000
    0.00000000    0.75000000    0.00000000
    0.00000000    0.75000000    0.06250000
    0.00000000    0.75000000    0.12500000
    0.00000000    0.75000000    0.18750000
    0.00000000    0.75000000    0.25000000
    0.00000000    0.75000000    0.31250000
    0.00000000    0.75000000    0.37500000
    0.00000000    0.75000000    0.43750000
    0.00000000    0.75000000    0.50000000
    0.00000000    0.75000000    0.56250000
    0.00000000    0.75000000    0.62500000
    0.00000000    0.75000000    0.68750000
    0.00000000    0.75000000    0.75000000
    0.00000000    0.75000000    0.81250000
    0.00000000    0.75000000    0.87500000
    0.00000000    0.75000000    0.93750000
    0.00000000    0.81250000    0.00000000
    0.00000000    0.81250000    0.06250000
    0.00000000    0.81250000    0.12500000
    0.00000000    0.81250000    0.18750000
    0.00000000    0.81250000    0.25000000
    0.00000000    0.81250000    0.31250000
    0.00000000    0.81250000    0.37500000
    0.00000000    0.81250000    0.43750000
    0.00000000    0.81250000    0.50000000
    0.00000000    0.81250000    0.56250000
    0.00000000    0.81250000    0.62500000
    0.00000000    0.81250000    0.68750000
    0.00000000    0.81250000    0.75000000
    0.00000000    0.81250000    0.81250000
    0.00000000    0.81250000    0.87500000
    0.00000000    0.81250000    0.93750000
    0.00000000    0.87500000    0.00000000
    0.00000000    0.87500000    0.06250000
    0.00000000    0.87500000    0.12500000
    0.00000000    0.87500000    0.18750000
    0.00000000    0.87500000    0.25000000
    0.00000000    0.87500000    0.31250000
    0.00000000    0.87500000    0.37500000
    0.00000000    0.87500000    0.43750000
    0.00000000    0.87500000    0.50000000
    0.00000000    0.87500000    0.56250000
    0.00000000    0.87500000    0.62500000
    0.00000000    0.87500000    0.68750000
    0.00000000    0.87500000    0.75000000
    0.00000000    0.87500000    0.81250000
    0.00000000    0.87500000    0.87500000
    0.00000000    0.87500000    0.93750000
    0.00000000    0.93750000    0.00000000
    0.00000000    0.93750000    0.06250000
    0.00000000    0.93750000    0.12500000
    0.00000000    0.93750000    0.18750000
    0.00000000    0.93750000    0.25000000
    0.00000000    0.93750000    0.31250000
    0.00000000    0.93750000    0.37500000
    0.00000000    0.93750000    0.43750000
    0.00000000    0.93750000    0.50000000
    0.00000000    0.93750000    0.56250000
    0.00000000    0.93750000    0.62500000
    0.00000000    0.93750000    0.68750000
    0.00000000    0.93750000    0.75000000
    0.00000000    0.93750000    0.81250000
    0.00000000    0.93750000    0.87500000
    0.00000000    0.93750000    0.93750000
    0.06250000    0.00000000    0.00000000
    0.06250000    0.00000000    0.06250000
    0.06250000    0.00000000    0.12500000
    0.06250000    0.00000000    0.18750000
    0.06250000    0.00000000    0.25000000
    0.06250000    0.00000000    0.31250000
    0.06250000    0.00000000    0.37500000
    0.06250000    0.00000000    0.43750000
    0.06250000    0.00000000    0.50000000
    0.06250000    0.00000000    0.56250000
    0.06250000    0.00000000    0.62500000
    0.06250000    0.00000000    0.68750000
    0.06250000    0.00000000    0.75000000
    0.06250000    0.00000000    0.81250000
    0.06250000    0.00000000    0.87500000
    0.06250000    0.00000000    0.93750000
    0.06250000    0.06250000    0.00000000
    0.06250000    0.06250000    0.06250000
    0.06250000    0.06250000    0.12500000
    0.06250000    0.06250000    0.18750000
    0.06250000    0.06250000    0.25000000
    0.06250000    0.06250000    0.31250000
    0.06250000    0.06250000    0.37500000
    0.06250000    0.06250000    0.43750000
    0.06250000    0.06250000    0.50000000
    0.06250000    0.06250000    0.56250000
    0.06250000    0.06250000    0.62500000
    0.06250000    0.06250000    0.68750000
    0.06250000    0.06250000    0.75000000
    0.06250000    0.06250000    0.81250000
    0.06250000    0.06250000    0.87500000
    0.06250000    0.06250000    0.93750000
    0.06250000    0.12500000    0.00000000
    0.06250000    0.12500000    0.06250000
    0.06250000    0.12500000    0.12500000
    0.06250000    0.12500000    0.18750000
    0.06250000    0.12500000    0.25000000
    0.06250000    0.12500000    0.31250000
    0.06250000    0.12500000    0.37500000
    0.06250000    0.12500000    0.43750000
    0.06250000    0.12500000    0.50000000
    0.06250000    0.12500000    0.56250000
    0.06250000    0.12500000    0.62500000
    0.06250000    0.12500000    0.68750000
    0.06250000    0.12500000    0.75000000
    0.06250000    0.12500000    0.81250000
    0.06250000    0.12500000    0.87500000
    0.06250000    0.12500000    0.93750000
    0.06250000    0.18750000    0.00000000
    0.06250000    0.18750000    0.06250000
    0.06250000    0.18750000    0.12500000
    0.06250000    0.18750000    0.18750000
    0.06250000    0.18750000    0.25000000
    0.06250000    0.18750000    0.31250000
    0.06250000    0.18750000    0.37500000
    0.06250000    0.18750000    0.43750000
    0.06250000    0.18750000    0.50000000
    0.06250000    0.18750000    0.56250000
    0.06250000    0.18750000    0.62500000
    0.06250000    0.18750000    0.68750000
    0.06250000    0.18750000    0.75000000
    0.06250000    0.18750000    0.81250000
    0.06250000    0.18750000    0.87500000
    0.06250000    0.18750000    0.93750000
    0.06250000    0.25000000    0.00000000
    0.06250000    0.25000000    0.06250000
    0.06250000    0.25000000    0.12500000
    0.06250000    0.25000000    0.18750000
    0.06250000    0.25000000    0.25000000
    0.06250000    0.25000000    0.31250000
    0.06250000    0.25000000    0.37500000
    0.06250000    0.25000000    0.43750000
    0.06250000    0.25000000    0.50000000
    0.06250000    0.25000000    0.56250000
    0.06250000    0.25000000    0.62500000
    0.06250000    0.25000000    0.68750000
    0.06250000    0.25000000    0.75000000
    0.06250000    0.25000000    0.81250000
    0.06250000    0.25000000    0.87500000
    0.06250000    0.25000000    0.93750000
    0.06250000    0.31250000    0.00000000
    0.06250000    0.31250000    0.06250000
    0.06250000    0.31250000    0.12500000
    0.06250000    0.31250000    0.18750000
    0.06250000    0.31250000    0.25000000
    0.06250000    0.31250000    0.31250000
    0.06250000    0.31250000    0.37500000
    0.06250000    0.31250000    0.43750000
    0.06250000    0.31250000    0.50000000
    0.06250000    0.31250000    0.56250000
    0.06250000    0.31250000    0.62500000
    0.06250000    0.31250000    0.68750000
    0.06250000    0.31250000    0.75000000
    0.06250000    0.31250000    0.81250000
    0.06250000    0.31250000    0.87500000
    0.06250000    0.31250000    0.93750000
    0.06250000    0.37500000    0.00000000
    0.06250000    0.37500000    0.06250000
    0.06250000    0.37500000    0.12500000
    0.06250000    0.37500000    0.18750000
    0.06250000    0.37500000    0.25000000
    0.06250000    0.37500000    0.31250000
    0.06250000    0.37500000    0.37500000
    0.06250000    0.37500000    0.43750000
    0.06250000    0.37500000    0.50000000
    0.06250000    0.37500000    0.56250000
    0.06250000    0.37500000    0.62500000
    0.06250000    0.37500000    0.68750000
    0.06250000    0.37500000    0.75000000
    0.06250000    0.37500000    0.81250000
    0.06250000    0.37500000    0.87500000
    0.06250000    0.37500000    0.93750000
    0.06250000    0.43750000    0.00000000
    0.06250000    0.43750000    0.06250000
    0.06250000    0.43750000    0.12500000
    0.06250000    0.43750000    0.18750000
    0.06250000    0.43750000    0.25000000
    0.06250000    0.43750000    0.31250000
    0.06250000    0.43750000    0.37500000
    0.06250000    0.43750000    0.43750000
    0.06250000    0.43750000    0.50000000
    0.06250000    0.43750000    0.56250000
    0.06250000    0.43750000    0.62500000
    0.06250000    0.43750000    0.68750000
    0.06250000    0.43750000    0.75000000
    0.06250000    0.43750000    0.81250000
    0.06250000    0.43750000    0.87500000
    0.06250000    0.43750000    0.93750000
    0.06250000    0.50000000    0.00000000
    0.06250000    0.50000000    0.06250000
    0.06250000    0.50000000    0.12500000
    0.06250000    0.50000000    0.18750000
    0.06250000    0.50000000    0.25000000
    0.06250000    0.50000000    0.31250000
    0.06250000    0.50000000    0.37500000
    0.06250000    0.50000000    0.43750000
    0.06250000    0.50000000    0.50000000
    0.06250000    0.50000000    0.56250000
    0.06250000    0.50000000    0.62500000
    0.06250000    0.50000000    0.68750000
    0.06250000    0.50000000    0.75000000
    0.06250000    0.50000000    0.81250000
    0.06250000    0.50000000    0.87500000
    0.06250000    0.50000000    0.93750000
    0.06250000    0.56250000    0.00000000
    0.06250000    0.56250000    0.06250000
    0.06250000    0.56250000    0.12500000
    0.06250000    0.56250000    0.18750000
    0.06250000    0.56250000    0.25000000
    0.06250000    0.56250000    0.31250000
    0.06250000    0.56250000    0.37500000
    0.06250000    0.56250000    0.43750000
    0.06250000    0.56250000    0.50000000
    0.06250000    0.56250000    0.56250000
    0.06250000    0.56250000    0.62500000
    0.06250000    0.56250000    0.68750000
    0.06250000    0.56250000    0.75000000
    0.06250000    0.56250000    0.81250000
    0.06250000    0.56250000    0.87500000
    0.06250000    0.56250000    0.93750000
    0.06250000    0.62500000    0.00000000
    0.06250000    0.62500000    0.06250000
    0.06250000    0.62500000    0.12500000
    0.06250000    0.62500000    0.18750000
    0.06250000    0.62500000    0.25000000
    0.06250000    0.62500000    0.31250000
    0.06250000    0.62500000    0.37500000
    0.06250000    0.62500000    0.43750000
    0.06250000    0.62500000    0.50000000
    0.06250000    0.62500000    0.56250000
    0.06250000    0.62500000    0.62500000
    0.06250000    0.62500000    0.68750000
    0.06250000    0.62500000    0.75000000
    0.06250000    0.62500000    0.81250000
    0.06250000    0.62500000    0.87500000
    0.06250000    0.62500000    0.93750000
    0.06250000    0.68750000    0.00000000
    0.06250000    0.68750000    0.06250000
    0.06250000    0.68750000    0.12500000
    0.06250000    0.68750000    0.18750000
    0.06250000    0.68750000    0.25000000
    0.06250000    0.68750000    0.31250000
    0.06250000    0.68750000    0.37500000
    0.06250000    0.68750000    0.43750000
    0.06250000    0.68750000    0.50000000
    0.06250000    0.68750000    0.56250000
    0.06250000    0.68750000    0.62500000
    0.06250000    0.68750000    0.68750000
    0.06250000    0.68750000    0.75000000
    0.06250000    0.68750000    0.81250000
    0.06250000    0.68750000    0.87500000
    0.06250000    0.68750000    0.93750000
    0.06250000    0.75000000    0.00000000
    0.06250000    0.75000000    0.06250000
    0.06250000    0.75000000    0.12500000
    0.06250000    0.75000000    0.18750000
    0.06250000    0.75000000    0.25000000
    0.06250000    0.75000000    0.31250000
    0.06250000    0.75000000    0.37500000
    0.06250000    0.75000000    0.43750000
    0.06250000    0.75000000    0.50000000
    0.06250000    0.75000000    0.56250000
    0.06250000    0.75000000    0.62500000
    0.06250000    0.75000000    0.68750000
    0.06250000    0.75000000    0.75000000
    0.06250000    0.75000000    0.81250000
    0.06250000    0.75000000    0.87500000
    0.06250000    0.75000000    0.93750000
    0.06250000    0.81250000    0.00000000
    0.06250000    0.81250000    0.06250000
    0.06250000    0.81250000    0.12500000
    0.06250000    0.81250000    0.18750000
    0.06250000    0.81250000    0.25000000
    0.06250000    0.81250000    0.31250000
    0.06250000    0.81250000    0.37500000
    0.06250000    0.81250000    0.43750000
    0.06250000    0.81250000    0.50000000
    0.06250000    0.81250000    0.56250000
    0.06250000    0.81250000    0.62500000
    0.06250000    0.81250000    0.68750000
    0.06250000    0.81250000    0.75000000
    0.06250000    0.81250000    0.81250000
    0.06250000    0.81250000    0.87500000
    0.06250000    0.81250000    0.93750000
    0.06250000    0.87500000    0.00000000
    0.06250000    0.87500000    0.06250000
    0.06250000    0.87500000    0.12500000
    0.06250000    0.87500000    0.18750000
    0.06250000    0.87500000    0.25000000
    0.06250000    0.87500000    0.31250000
    0.06250000    0.87500000    0.37500000
    0.06250000    0.87500000    0.43750000
    0.06250000    0.87500000    0.50000000
    0.06250000    0.87500000    0.56250000
    0.06250000    0.87500000    0.62500000
    0.06250000    0.87500000    0.68750000
    0.06250000    0.87500000    0.75000000
    0.06250000    0.87500000    0.81250000
    0.06250000    0.87500000    0.87500000
    0.06250000    0.87500000    0.93750000
    0.06250000    0.93750000    0.00000000
    0.06250000    0.93750000    0.06250000
    0.06250000    0.93750000    0.12500000
    0.06250000    0.93750000    0.18750000
    0.06250000    0.93750000    0.25000000
    0.06250000    0.93750000    0.31250000
    0.06250000    0.93750000    0.37500000
    0.06250000    0.93750000    0.43750000
    0.06250000    0.93750000    0.50000000
    0.06250000    0.93750000    0.56250000
    0.06250000    0.93750000    0.62500000
    0.06250000    0.93750000    0.68750000
    0.06250000    0.93750000    0.75000000
    0.06250000    0.93750000    0.81250000
    0.06250000    0.93750000    0.87500000
    0.06250000    0.93750000    0.93750000
    0.12500000    0.00000000    0.00000000
    0.12500000    0.00000000    0.06250000
    0.12500000    0.00000000    0.12500000
    0.12500000    0.00000000    0.18750000
    0.12500000    0.00000000    0.25000000
    0.12500000    0.00000000    0.31250000
    0.12500000    0.00000000    0.37500000
    0.12500000    0.00000000    0.43750000
    0.12500000    0.00000000    0.50000000
    0.12500000    0.00000000    0.56250000
    0.12500000    0.00000000    0.62500000
    0.12500000    0.00000000    0.68750000
    0.12500000    0.00000000    0.75000000
    0.12500000    0.00000000    0.81250000
    0.12500000    0.00000000    0.87500000
    0.12500000    0.00000000    0.93750000
    0.12500000    0.06250000    0.00000000
    0.12500000    0.06250000    0.06250000
    0.12500000    0.06250000    0.12500000
    0.12500000    0.06250000    0.18750000
    0.12500000    0.06250000    0.25000000
    0.12500000    0.06250000    0.31250000
    0.12500000    0.06250000    0.37500000
    0.12500000    0.06250000    0.43750000
    0.12500000    0.06250000    0.50000000
    0.12500000    0.06250000    0.56250000
    0.12500000    0.06250000    0.62500000
    0.12500000    0.06250000    0.68750000
    0.12500000    0.06250000    0.75000000
    0.12500000    0.06250000    0.81250000
    0.12500000    0.06250000    0.87500000
    0.12500000    0.06250000    0.93750000
    0.12500000    0.12500000    0.00000000
    0.12500000    0.12500000    0.06250000
    0.12500000    0.12500000    0.12500000
    0.12500000    0.12500000    0.18750000
    0.12500000    0.12500000    0.25000000
    0.12500000    0.12500000    0.31250000
    0.12500000    0.12500000    0.37500000
    0.12500000    0.12500000    0.43750000
    0.12500000    0.12500000    0.50000000
    0.12500000    0.12500000    0.56250000
    0.12500000    0.12500000    0.62500000
    0.12500000    0.12500000    0.68750000
    0.12500000    0.12500000    0.75000000
    0.12500000    0.12500000    0.81250000
    0.12500000    0.12500000    0.87500000
    0.12500000    0.12500000    0.93750000
    0.12500000    0.18750000    0.00000000
    0.12500000    0.18750000    0.06250000
    0.12500000    0.18750000    0.12500000
    0.12500000    0.18750000    0.18750000
    0.12500000    0.18750000    0.25000000
    0.12500000    0.18750000    0.31250000
    0.12500000    0.18750000    0.37500000
    0.12500000    0.18750000    0.43750000
    0.12500000    0.18750000    0.50000000
    0.12500000    0.18750000    0.56250000
    0.12500000    0.18750000    0.62500000
    0.12500000    0.18750000    0.68750000
    0.12500000    0.18750000    0.75000000
    0.12500000    0.18750000    0.81250000
    0.12500000    0.18750000    0.87500000
    0.12500000    0.18750000    0.93750000
    0.12500000    0.25000000    0.00000000
    0.12500000    0.25000000    0.06250000
    0.12500000    0.25000000    0.12500000
    0.12500000    0.25000000    0.18750000
    0.12500000    0.25000000    0.25000000
    0.12500000    0.25000000    0.31250000
    0.12500000    0.25000000    0.37500000
    0.12500000    0.25000000    0.43750000
    0.12500000    0.25000000    0.50000000
    0.12500000    0.25000000    0.56250000
    0.12500000    0.25000000    0.62500000
    0.12500000    0.25000000    0.68750000
    0.12500000    0.25000000    0.75000000
    0.12500000    0.25000000    0.81250000
    0.12500000    0.25000000    0.87500000
    0.12500000    0.25000000    0.93750000
    0.12500000    0.31250000    0.00000000
    0.12500000    0.31250000    0.06250000
    0.12500000    0.31250000    0.12500000
    0.12500000    0.31250000    0.18750000
    0.12500000    0.31250000    0.25000000
    0.12500000    0.31250000    0.31250000
    0.12500000    0.31250000    0.37500000
    0.12500000    0.31250000    0.43750000
    0.12500000    0.31250000    0.50000000
    0.12500000    0.31250000    0.56250000
    0.12500000    0.31250000    0.62500000
    0.12500000    0.31250000    0.68750000
    0.12500000    0.31250000    0.75000000
    0.12500000    0.31250000    0.81250000
    0.12500000    0.31250000    0.87500000
    0.12500000    0.31250000    0.93750000
    0.12500000    0.37500000    0.00000000
    0.12500000    0.37500000    0.06250000
    0.12500000    0.37500000    0.12500000
    0.12500000    0.37500000    0.18750000
    0.12500000    0.37500000    0.25000000
    0.12500000    0.37500000    0.31250000
    0.12500000    0.37500000    0.37500000
    0.12500000    0.37500000    0.43750000
    0.12500000    0.37500000    0.50000000
    0.12500000    0.37500000    0.56250000
    0.12500000    0.37500000    0.62500000
    0.12500000    0.37500000    0.68750000
    0.12500000    0.37500000    0.75000000
    0.12500000    0.37500000    0.81250000
    0.12500000    0.37500000    0.87500000
    0.12500000    0.37500000    0.93750000
    0.12500000    0.43750000    0.00000000
    0.12500000    0.43750000    0.06250000
    0.12500000    0.43750000    0.12500000
    0.12500000    0.43750000    0.18750000
    0.12500000    0.43750000    0.25000000
    0.12500000    0.43750000    0.31250000
    0.12500000    0.43750000    0.37500000
    0.12500000    0.43750000    0.43750000
    0.12500000    0.43750000    0.50000000
    0.12500000    0.43750000    0.56250000
    0.12500000    0.43750000    0.62500000
    0.12500000    0.43750000    0.68750000
    0.12500000    0.43750000    0.75000000
    0.12500000    0.43750000    0.81250000
    0.12500000    0.43750000    0.87500000
    0.12500000    0.43750000    0.93750000
    0.12500000    0.50000000    0.00000000
    0.12500000    0.50000000    0.06250000
    0.12500000    0.50000000    0.12500000
    0.12500000    0.50000000    0.18750000
    0.12500000    0.50000000    0.25000000
    0.12500000    0.50000000    0.31250000
    0.12500000    0.50000000    0.37500000
    0.12500000    0.50000000    0.43750000
    0.12500000    0.50000000    0.50000000
    0.12500000    0.50000000    0.56250000
    0.12500000    0.50000000    0.62500000
    0.12500000    0.50000000    0.68750000
    0.12500000    0.50000000    0.75000000
    0.12500000    0.50000000    0.81250000
    0.12500000    0.50000000    0.87500000
    0.12500000    0.50000000    0.93750000
    0.12500000    0.56250000    0.00000000
    0.12500000    0.56250000    0.06250000
    0.12500000    0.56250000    0.12500000
    0.12500000    0.56250000    0.18750000
    0.12500000    0.56250000    0.25000000
    0.12500000    0.56250000    0.31250000
    0.12500000    0.56250000    0.37500000
    0.12500000    0.56250000    0.43750000
    0.12500000    0.56250000    0.50000000
    0.12500000    0.56250000    0.56250000
    0.12500000    0.56250000    0.62500000
    0.12500000    0.56250000    0.68750000
    0.12500000    0.56250000    0.75000000
    0.12500000    0.56250000    0.81250000
    0.12500000    0.56250000    0.87500000
    0.12500000    0.56250000    0.93750000
    0.12500000    0.62500000    0.00000000
    0.12500000    0.62500000    0.06250000
    0.12500000    0.62500000    0.12500000
    0.12500000    0.62500000    0.18750000
    0.12500000    0.62500000    0.25000000
    0.12500000    0.62500000    0.31250000
    0.12500000    0.62500000    0.37500000
    0.12500000    0.62500000    0.43750000
    0.12500000    0.62500000    0.50000000
    0.12500000    0.62500000    0.56250000
    0.12500000    0.62500000    0.62500000
    0.12500000    0.62500000    0.68750000
    0.12500000    0.62500000    0.75000000
    0.12500000    0.62500000    0.81250000
    0.12500000    0.62500000    0.87500000
    0.12500000    0.62500000    0.93750000
    0.12500000    0.68750000    0.00000000
    0.12500000    0.68750000    0.06250000
    0.12500000    0.68750000    0.12500000
    0.12500000    0.68750000    0.18750000
    0.12500000    0.68750000    0.25000000
    0.12500000    0.68750000    0.31250000
    0.12500000    0.68750000    0.37500000
    0.12500000    0.68750000    0.43750000
    0.12500000    0.68750000    0.50000000
    0.12500000    0.68750000    0.56250000
    0.12500000    0.68750000    0.62500000
    0.12500000    0.68750000    0.68750000
    0.12500000    0.68750000    0.75000000
    0.12500000    0.68750000    0.81250000
    0.12500000    0.68750000    0.87500000
    0.12500000    0.68750000    0.93750000
    0.12500000    0.75000000    0.00000000
    0.12500000    0.75000000    0.06250000
    0.12500000    0.75000000    0.12500000
    0.12500000    0.75000000    0.18750000
    0.12500000    0.75000000    0.25000000
    0.12500000    0.75000000    0.31250000
    0.12500000    0.75000000    0.37500000
    0.12500000    0.75000000    0.43750000
    0.12500000    0.75000000    0.50000000
    0.12500000    0.75000000    0.56250000
    0.12500000    0.75000000    0.62500000
    0.12500000    0.75000000    0.68750000
    0.12500000    0.75000000    0.75000000
    0.12500000    0.75000000    0.81250000
    0.12500000    0.75000000    0.87500000
    0.12500000    0.75000000    0.93750000
    0.12500000    0.81250000    0.00000000
    0.12500000    0.81250000    0.06250000
    0.12500000    0.81250000    0.12500000
    0.12500000    0.81250000    0.18750000
    0.12500000    0.81250000    0.25000000
    0.12500000    0.81250000    0.31250000
    0.12500000    0.81250000    0.37500000
    0.12500000    0.81250000    0.43750000
    0.12500000    0.81250000    0.50000000
    0.12500000    0.81250000    0.56250000
    0.12500000    0.81250000    0.62500000
    0.12500000    0.81250000    0.68750000
    0.12500000    0.81250000    0.75000000
    0.12500000    0.81250000    0.81250000
    0.12500000    0.81250000    0.87500000
    0.12500000    0.81250000    0.93750000
    0.12500000    0.87500000    0.00000000
    0.12500000    0.87500000    0.06250000
    0.12500000    0.87500000    0.12500000
    0.12500000    0.87500000    0.18750000
    0.12500000    0.87500000    0.25000000
    0.12500000    0.87500000    0.31250000
    0.12500000    0.87500000    0.37500000
    0.12500000    0.87500000    0.43750000
    0.12500000    0.87500000    0.50000000
    0.12500000    0.87500000    0.56250000
    0.12500000    0.87500000    0.62500000
    0.12500000    0.87500000    0.68750000
    0.12500000    0.87500000    0.75000000
    0.12500000    0.87500000    0.81250000
    0.12500000    0.87500000    0.87500000
    0.12500000    0.87500000    0.93750000
    0.12500000    0.93750000    0.00000000
    0.12500000    0.93750000    0.06250000
    0.12500000    0.93750000    0.12500000
    0.12500000    0.93750000    0.18750000
    0.12500000    0.93750000    0.25000000
    0.12500000    0.93750000    0.31250000
    0.12500000    0.93750000    0.37500000
    0.12500000    0.93750000    0.43750000
    0.12500000    0.93750000    0.50000000
    0.12500000    0.93750000    0.56250000
    0.12500000    0.93750000    0.62500000
    0.12500000    0.93750000    0.68750000
    0.12500000    0.93750000    0.75000000
    0.12500000    0.93750000    0.81250000
    0.12500000    0.93750000    0.87500000
    0.12500000    0.93750000    0.93750000
    0.18750000    0.00000000    0.00000000
    0.18750000    0.00000000    0.06250000
    0.18750000    0.00000000    0.12500000
    0.18750000    0.00000000    0.18750000
    0.18750000    0.00000000    0.25000000
    0.18750000    0.00000000    0.31250000
    0.18750000    0.00000000    0.37500000
    0.18750000    0.00000000    0.43750000
    0.18750000    0.00000000    0.50000000
    0.18750000    0.00000000    0.56250000
    0.18750000    0.00000000    0.62500000
    0.18750000    0.00000000    0.68750000
    0.18750000    0.00000000    0.75000000
    0.18750000    0.00000000    0.81250000
    0.18750000    0.00000000    0.87500000
    0.18750000    0.00000000    0.93750000
    0.18750000    0.06250000    0.00000000
    0.18750000    0.06250000    0.06250000
    0.18750000    0.06250000    0.12500000
    0.18750000    0.06250000    0.18750000
    0.18750000    0.06250000    0.25000000
    0.18750000    0.06250000    0.31250000
    0.18750000    0.06250000    0.37500000
    0.18750000    0.06250000    0.43750000
    0.18750000    0.06250000    0.50000000
    0.18750000    0.06250000    0.56250000
    0.18750000    0.06250000    0.62500000
    0.18750000    0.06250000    0.68750000
    0.18750000    0.06250000    0.75000000
    0.18750000    0.06250000    0.81250000
    0.18750000    0.06250000    0.87500000
    0.18750000    0.06250000    0.93750000
    0.18750000    0.12500000    0.00000000
    0.18750000    0.12500000    0.06250000
    0.18750000    0.12500000    0.12500000
    0.18750000    0.12500000    0.18750000
    0.18750000    0.12500000    0.25000000
    0.18750000    0.12500000    0.31250000
    0.18750000    0.12500000    0.37500000
    0.18750000    0.12500000    0.43750000
    0.18750000    0.12500000    0.50000000
    0.18750000    0.12500000    0.56250000
    0.18750000    0.12500000    0.62500000
    0.18750000    0.12500000    0.68750000
    0.18750000    0.12500000    0.75000000
    0.18750000    0.12500000    0.81250000
    0.18750000    0.12500000    0.87500000
    0.18750000    0.12500000    0.93750000
    0.18750000    0.18750000    0.00000000
    0.18750000    0.18750000    0.06250000
    0.18750000    0.18750000    0.12500000
    0.18750000    0.18750000    0.18750000
    0.18750000    0.18750000    0.25000000
    0.18750000    0.18750000    0.31250000
    0.18750000    0.18750000    0.37500000
    0.18750000    0.18750000    0.43750000
    0.18750000    0.18750000    0.50000000
    0.18750000    0.18750000    0.56250000
    0.18750000    0.18750000    0.62500000
    0.18750000    0.18750000    0.68750000
    0.18750000    0.18750000    0.75000000
    0.18750000    0.18750000    0.81250000
    0.18750000    0.18750000    0.87500000
    0.18750000    0.18750000    0.93750000
    0.18750000    0.25000000    0.00000000
    0.18750000    0.25000000    0.06250000
    0.18750000    0.25000000    0.12500000
    0.18750000    0.25000000    0.18750000
    0.18750000    0.25000000    0.25000000
    0.18750000    0.25000000    0.31250000
    0.18750000    0.25000000    0.37500000
    0.18750000    0.25000000    0.43750000
    0.18750000    0.25000000    0.50000000
    0.18750000    0.25000000    0.56250000
    0.18750000    0.25000000    0.62500000
    0.18750000    0.25000000    0.68750000
    0.18750000    0.25000000    0.75000000
    0.18750000    0.25000000    0.81250000
    0.18750000    0.25000000    0.87500000
    0.18750000    0.25000000    0.93750000
    0.18750000    0.31250000    0.00000000
    0.18750000    0.31250000    0.06250000
    0.18750000    0.31250000    0.12500000
    0.18750000    0.31250000    0.18750000
    0.18750000    0.31250000    0.25000000
    0.18750000    0.31250000    0.31250000
    0.18750000    0.31250000    0.37500000
    0.18750000    0.31250000    0.43750000
    0.18750000    0.31250000    0.50000000
    0.18750000    0.31250000    0.56250000
    0.18750000    0.31250000    0.62500000
    0.18750000    0.31250000    0.68750000
    0.18750000    0.31250000    0.75000000
    0.18750000    0.31250000    0.81250000
    0.18750000    0.31250000    0.87500000
    0.18750000    0.31250000    0.93750000
    0.18750000    0.37500000    0.00000000
    0.18750000    0.37500000    0.06250000
    0.18750000    0.37500000    0.12500000
    0.18750000    0.37500000    0.18750000
    0.18750000    0.37500000    0.25000000
    0.18750000    0.37500000    0.31250000
    0.18750000    0.37500000    0.37500000
    0.18750000    0.37500000    0.43750000
    0.18750000    0.37500000    0.50000000
    0.18750000    0.37500000    0.56250000
    0.18750000    0.37500000    0.62500000
    0.18750000    0.37500000    0.68750000
    0.18750000    0.37500000    0.75000000
    0.18750000    0.37500000    0.81250000
    0.18750000    0.37500000    0.87500000
    0.18750000    0.37500000    0.93750000
    0.18750000    0.43750000    0.00000000
    0.18750000    0.43750000    0.06250000
    0.18750000    0.43750000    0.12500000
    0.18750000    0.43750000    0.18750000
    0.18750000    0.43750000    0.25000000
    0.18750000    0.43750000    0.31250000
    0.18750000    0.43750000    0.37500000
    0.18750000    0.43750000    0.43750000
    0.18750000    0.43750000    0.50000000
    0.18750000    0.43750000    0.56250000
    0.18750000    0.43750000    0.62500000
    0.18750000    0.43750000    0.68750000
    0.18750000    0.43750000    0.75000000
    0.18750000    0.43750000    0.81250000
    0.18750000    0.43750000    0.87500000
    0.18750000    0.43750000    0.93750000
    0.18750000    0.50000000    0.00000000
    0.18750000    0.50000000    0.06250000
    0.18750000    0.50000000    0.12500000
    0.18750000    0.50000000    0.18750000
    0.18750000    0.50000000    0.25000000
    0.18750000    0.50000000    0.31250000
    0.18750000    0.50000000    0.37500000
    0.18750000    0.50000000    0.43750000
    0.18750000    0.50000000    0.50000000
    0.18750000    0.50000000    0.56250000
    0.18750000    0.50000000    0.62500000
    0.18750000    0.50000000    0.68750000
    0.18750000    0.50000000    0.75000000
    0.18750000    0.50000000    0.81250000
    0.18750000    0.50000000    0.87500000
    0.18750000    0.50000000    0.93750000
    0.18750000    0.56250000    0.00000000
    0.18750000    0.56250000    0.06250000
    0.18750000    0.56250000    0.12500000
    0.18750000    0.56250000    0.18750000
    0.18750000    0.56250000    0.25000000
    0.18750000    0.56250000    0.31250000
    0.18750000    0.56250000    0.37500000
    0.18750000    0.56250000    0.43750000
    0.18750000    0.56250000    0.50000000
    0.18750000    0.56250000    0.56250000
    0.18750000    0.56250000    0.62500000
    0.18750000    0.56250000    0.68750000
    0.18750000    0.56250000    0.75000000
    0.18750000    0.56250000    0.81250000
    0.18750000    0.56250000    0.87500000
    0.18750000    0.56250000    0.93750000
    0.18750000    0.62500000    0.00000000
    0.18750000    0.62500000    0.06250000
    0.18750000    0.62500000    0.12500000
    0.18750000    0.62500000    0.18750000
    0.18750000    0.62500000    0.25000000
    0.18750000    0.62500000    0.31250000
    0.18750000    0.62500000    0.37500000
    0.18750000    0.62500000    0.43750000
    0.18750000    0.62500000    0.50000000
    0.18750000    0.62500000    0.56250000
    0.18750000    0.62500000    0.62500000
    0.18750000    0.62500000    0.68750000
    0.18750000    0.62500000    0.75000000
    0.18750000    0.62500000    0.81250000
    0.18750000    0.62500000    0.87500000
    0.18750000    0.62500000    0.93750000
    0.18750000    0.68750000    0.00000000
    0.18750000    0.68750000    0.06250000
    0.18750000    0.68750000    0.12500000
    0.18750000    0.68750000    0.18750000
    0.18750000    0.68750000    0.25000000
    0.18750000    0.68750000    0.31250000
    0.18750000    0.68750000    0.37500000
    0.18750000    0.68750000    0.43750000
    0.18750000    0.68750000    0.50000000
    0.18750000    0.68750000    0.56250000
    0.18750000    0.68750000    0.62500000
    0.18750000    0.68750000    0.68750000
    0.18750000    0.68750000    0.75000000
    0.18750000    0.68750000    0.81250000
    0.18750000    0.68750000    0.87500000
    0.18750000    0.68750000    0.93750000
    0.18750000    0.75000000    0.00000000
    0.18750000    0.75000000    0.06250000
    0.18750000    0.75000000    0.12500000
    0.18750000    0.75000000    0.18750000
    0.18750000    0.75000000    0.25000000
    0.18750000    0.75000000    0.31250000
    0.18750000    0.75000000    0.37500000
    0.18750000    0.75000000    0.43750000
    0.18750000    0.75000000    0.50000000
    0.18750000    0.75000000    0.56250000
    0.18750000    0.75000000    0.62500000
    0.18750000    0.75000000    0.68750000
    0.18750000    0.75000000    0.75000000
    0.18750000    0.75000000    0.81250000
    0.18750000    0.75000000    0.87500000
    0.18750000    0.75000000    0.93750000
    0.18750000    0.81250000    0.00000000
    0.18750000    0.81250000    0.06250000
    0.18750000    0.81250000    0.12500000
    0.18750000    0.81250000    0.18750000
    0.18750000    0.81250000    0.25000000
    0.18750000    0.81250000    0.31250000
    0.18750000    0.81250000    0.37500000
    0.18750000    0.81250000    0.43750000
    0.18750000    0.81250000    0.50000000
    0.18750000    0.81250000    0.56250000
    0.18750000    0.81250000    0.62500000
    0.18750000    0.81250000    0.68750000
    0.18750000    0.81250000    0.75000000
    0.18750000    0.81250000    0.81250000
    0.18750000    0.81250000    0.87500000
    0.18750000    0.81250000    0.93750000
    0.18750000    0.87500000    0.00000000
    0.18750000    0.87500000    0.06250000
    0.18750000    0.87500000    0.12500000
    0.18750000    0.87500000    0.18750000
    0.18750000    0.87500000    0.25000000
    0.18750000    0.87500000    0.31250000
    0.18750000    0.87500000    0.37500000
    0.18750000    0.87500000    0.43750000
    0.18750000    0.87500000    0.50000000
    0.18750000    0.87500000    0.56250000
    0.18750000    0.87500000    0.62500000
    0.18750000    0.87500000    0.68750000
    0.18750000    0.87500000    0.75000000
    0.18750000    0.87500000    0.81250000
    0.18750000    0.87500000    0.87500000
    0.18750000    0.87500000    0.93750000
    0.18750000    0.93750000    0.00000000
    0.18750000    0.93750000    0.06250000
    0.18750000    0.93750000    0.12500000
    0.18750000    0.93750000    0.18750000
    0.18750000    0.93750000    0.25000000
    0.18750000    0.93750000    0.31250000
    0.18750000    0.93750000    0.37500000
    0.18750000    0.93750000    0.43750000
    0.18750000    0.93750000    0.50000000
    0.18750000    0.93750000    0.56250000
    0.18750000    0.93750000    0.62500000
    0.18750000    0.93750000    0.68750000
    0.18750000    0.93750000    0.75000000
    0.18750000    0.93750000    0.81250000
    0.18750000    0.93750000    0.87500000
    0.18750000    0.93750000    0.93750000
    0.25000000    0.00000000    0.00000000
    0.25000000    0.00000000    0.06250000
    0.25000000    0.00000000    0.12500000
    0.25000000    0.00000000    0.18750000
    0.25000000    0.00000000    0.25000000
    0.25000000    0.00000000    0.31250000
    0.25000000    0.00000000    0.37500000
    0.25000000    0.00000000    0.43750000
    0.25000000    0.00000000    0.50000000
    0.25000000    0.00000000    0.56250000
    0.25000000    0.00000000    0.62500000
    0.25000000    0.00000000    0.68750000
    0.25000000    0.00000000    0.75000000
    0.25000000    0.00000000    0.81250000
    0.25000000    0.00000000    0.87500000
    0.25000000    0.00000000    0.93750000
    0.25000000    0.06250000    0.00000000
    0.25000000    0.06250000    0.06250000
    0.25000000    0.06250000    0.12500000
    0.25000000    0.06250000    0.18750000
    0.25000000    0.06250000    0.25000000
    0.25000000    0.06250000    0.31250000
    0.25000000    0.06250000    0.37500000
    0.25000000    0.06250000    0.43750000
    0.25000000    0.06250000    0.50000000
    0.25000000    0.06250000    0.56250000
    0.25000000    0.06250000    0.62500000
    0.25000000    0.06250000    0.68750000
    0.25000000    0.06250000    0.75000000
    0.25000000    0.06250000    0.81250000
    0.25000000    0.06250000    0.87500000
    0.25000000    0.06250000    0.93750000
    0.25000000    0.12500000    0.00000000
    0.25000000    0.12500000    0.06250000
    0.25000000    0.12500000    0.12500000
    0.25000000    0.12500000    0.18750000
    0.25000000    0.12500000    0.25000000
    0.25000000    0.12500000    0.31250000
    0.25000000    0.12500000    0.37500000
    0.25000000    0.12500000    0.43750000
    0.25000000    0.12500000    0.50000000
    0.25000000    0.12500000    0.56250000
    0.25000000    0.12500000    0.62500000
    0.25000000    0.12500000    0.68750000
    0.25000000    0.12500000    0.75000000
    0.25000000    0.12500000    0.81250000
    0.25000000    0.12500000    0.87500000
    0.25000000    0.12500000    0.93750000
    0.25000000    0.18750000    0.00000000
    0.25000000    0.18750000    0.06250000
    0.25000000    0.18750000    0.12500000
    0.25000000    0.18750000    0.18750000
    0.25000000    0.18750000    0.25000000
    0.25000000    0.18750000    0.31250000
    0.25000000    0.18750000    0.37500000
    0.25000000    0.18750000    0.43750000
    0.25000000    0.18750000    0.50000000
    0.25000000    0.18750000    0.56250000
    0.25000000    0.18750000    0.62500000
    0.25000000    0.18750000    0.68750000
    0.25000000    0.18750000    0.75000000
    0.25000000    0.18750000    0.81250000
    0.25000000    0.18750000    0.87500000
    0.25000000    0.18750000    0.93750000
    0.25000000    0.25000000    0.00000000
    0.25000000    0.25000000    0.06250000
    0.25000000    0.25000000    0.12500000
    0.25000000    0.25000000    0.18750000
    0.25000000    0.25000000    0.25000000
    0.25000000    0.25000000    0.31250000
    0.25000000    0.25000000    0.37500000
    0.25000000    0.25000000    0.43750000
    0.25000000    0.25000000    0.50000000
    0.25000000    0.25000000    0.56250000
    0.25000000    0.25000000    0.62500000
    0.25000000    0.25000000    0.68750000
    0.25000000    0.25000000    0.75000000
    0.25000000    0.25000000    0.81250000
    0.25000000    0.25000000    0.87500000
    0.25000000    0.25000000    0.93750000
    0.25000000    0.31250000    0.00000000
    0.25000000    0.31250000    0.06250000
    0.25000000    0.31250000    0.12500000
    0.25000000    0.31250000    0.18750000
    0.25000000    0.31250000    0.25000000
    0.25000000    0.31250000    0.31250000
    0.25000000    0.31250000    0.37500000
    0.25000000    0.31250000    0.43750000
    0.25000000    0.31250000    0.50000000
    0.25000000    0.31250000    0.56250000
    0.25000000    0.31250000    0.62500000
    0.25000000    0.31250000    0.68750000
    0.25000000    0.31250000    0.75000000
    0.25000000    0.31250000    0.81250000
    0.25000000    0.31250000    0.87500000
    0.25000000    0.31250000    0.93750000
    0.25000000    0.37500000    0.00000000
    0.25000000    0.37500000    0.06250000
    0.25000000    0.37500000    0.12500000
    0.25000000    0.37500000    0.18750000
    0.25000000    0.37500000    0.25000000
    0.25000000    0.37500000    0.31250000
    0.25000000    0.37500000    0.37500000
    0.25000000    0.37500000    0.43750000
    0.25000000    0.37500000    0.50000000
    0.25000000    0.37500000    0.56250000
    0.25000000    0.37500000    0.62500000
    0.25000000    0.37500000    0.68750000
    0.25000000    0.37500000    0.75000000
    0.25000000    0.37500000    0.81250000
    0.25000000    0.37500000    0.87500000
    0.25000000    0.37500000    0.93750000
    0.25000000    0.43750000    0.00000000
    0.25000000    0.43750000    0.06250000
    0.25000000    0.43750000    0.12500000
    0.25000000    0.43750000    0.18750000
    0.25000000    0.43750000    0.25000000
    0.25000000    0.43750000    0.31250000
    0.25000000    0.43750000    0.37500000
    0.25000000    0.43750000    0.43750000
    0.25000000    0.43750000    0.50000000
    0.25000000    0.43750000    0.56250000
    0.25000000    0.43750000    0.62500000
    0.25000000    0.43750000    0.68750000
    0.25000000    0.43750000    0.75000000
    0.25000000    0.43750000    0.81250000
    0.25000000    0.43750000    0.87500000
    0.25000000    0.43750000    0.93750000
    0.25000000    0.50000000    0.00000000
    0.25000000    0.50000000    0.06250000
    0.25000000    0.50000000    0.12500000
    0.25000000    0.50000000    0.18750000
    0.25000000    0.50000000    0.25000000
    0.25000000    0.50000000    0.31250000
    0.25000000    0.50000000    0.37500000
    0.25000000    0.50000000    0.43750000
    0.25000000    0.50000000    0.50000000
    0.25000000    0.50000000    0.56250000
    0.25000000    0.50000000    0.62500000
    0.25000000    0.50000000    0.68750000
    0.25000000    0.50000000    0.75000000
    0.25000000    0.50000000    0.81250000
    0.25000000    0.50000000    0.87500000
    0.25000000    0.50000000    0.93750000
    0.25000000    0.56250000    0.00000000
    0.25000000    0.56250000    0.06250000
    0.25000000    0.56250000    0.12500000
    0.25000000    0.56250000    0.18750000
    0.25000000    0.56250000    0.25000000
    0.25000000    0.56250000    0.31250000
    0.25000000    0.56250000    0.37500000
    0.25000000    0.56250000    0.43750000
    0.25000000    0.56250000    0.50000000
    0.25000000    0.56250000    0.56250000
    0.25000000    0.56250000    0.62500000
    0.25000000    0.56250000    0.68750000
    0.25000000    0.56250000    0.75000000
    0.25000000    0.56250000    0.81250000
    0.25000000    0.56250000    0.87500000
    0.25000000    0.56250000    0.93750000
    0.25000000    0.62500000    0.00000000
    0.25000000    0.62500000    0.06250000
    0.25000000    0.62500000    0.12500000
    0.25000000    0.62500000    0.18750000
    0.25000000    0.62500000    0.25000000
    0.25000000    0.62500000    0.31250000
    0.25000000    0.62500000    0.37500000
    0.25000000    0.62500000    0.43750000
    0.25000000    0.62500000    0.50000000
    0.25000000    0.62500000    0.56250000
    0.25000000    0.62500000    0.62500000
    0.25000000    0.62500000    0.68750000
    0.25000000    0.62500000    0.75000000
    0.25000000    0.62500000    0.81250000
    0.25000000    0.62500000    0.87500000
    0.25000000    0.62500000    0.93750000
    0.25000000    0.68750000    0.00000000
    0.25000000    0.68750000    0.06250000
    0.25000000    0.68750000    0.12500000
    0.25000000    0.68750000    0.18750000
    0.25000000    0.68750000    0.25000000
    0.25000000    0.68750000    0.31250000
    0.25000000    0.68750000    0.37500000
    0.25000000    0.68750000    0.43750000
    0.25000000    0.68750000    0.50000000
    0.25000000    0.68750000    0.56250000
    0.25000000    0.68750000    0.62500000
    0.25000000    0.68750000    0.68750000
    0.25000000    0.68750000    0.75000000
    0.25000000    0.68750000    0.81250000
    0.25000000    0.68750000    0.87500000
    0.25000000    0.68750000    0.93750000
    0.25000000    0.75000000    0.00000000
    0.25000000    0.75000000    0.06250000
    0.25000000    0.75000000    0.12500000
    0.25000000    0.75000000    0.18750000
    0.25000000    0.75000000    0.25000000
    0.25000000    0.75000000    0.31250000
    0.25000000    0.75000000    0.37500000
    0.25000000    0.75000000    0.43750000
    0.25000000    0.75000000    0.50000000
    0.25000000    0.75000000    0.56250000
    0.25000000    0.75000000    0.62500000
    0.25000000    0.75000000    0.68750000
    0.25000000    0.75000000    0.75000000
    0.25000000    0.75000000    0.81250000
    0.25000000    0.75000000    0.87500000
    0.25000000    0.75000000    0.93750000
    0.25000000    0.81250000    0.00000000
    0.25000000    0.81250000    0.06250000
    0.25000000    0.81250000    0.12500000
    0.25000000    0.81250000    0.18750000
    0.25000000    0.81250000    0.25000000
    0.25000000    0.81250000    0.31250000
    0.25000000    0.81250000    0.37500000
    0.25000000    0.81250000    0.43750000
    0.25000000    0.81250000    0.50000000
    0.25000000    0.81250000    0.56250000
    0.25000000    0.81250000    0.62500000
    0.25000000    0.81250000    0.68750000
    0.25000000    0.81250000    0.75000000
    0.25000000    0.81250000    0.81250000
    0.25000000    0.81250000    0.87500000
    0.25000000    0.81250000    0.93750000
    0.25000000    0.87500000    0.00000000
    0.25000000    0.87500000    0.06250000
    0.25000000    0.87500000    0.12500000
    0.25000000    0.87500000    0.18750000
    0.25000000    0.87500000    0.25000000
    0.25000000    0.87500000    0.31250000
    0.25000000    0.87500000    0.37500000
    0.25000000    0.87500000    0.43750000
    0.25000000    0.87500000    0.50000000
    0.25000000    0.87500000    0.56250000
    0.25000000    0.87500000    0.62500000
    0.25000000    0.87500000    0.68750000
    0.25000000    0.87500000    0.75000000
    0.25000000    0.87500000    0.81250000
    0.25000000    0.87500000    0.87500000
    0.25000000    0.87500000    0.93750000
    0.25000000    0.93750000    0.00000000
    0.25000000    0.93750000    0.06250000
    0.25000000    0.93750000    0.12500000
    0.25000000    0.93750000    0.18750000
    0.25000000    0.93750000    0.25000000
    0.25000000    0.93750000    0.31250000
    0.25000000    0.93750000    0.37500000
    0.25000000    0.93750000    0.43750000
    0.25000000    0.93750000    0.50000000
    0.25000000    0.93750000    0.56250000
    0.25000000    0.93750000    0.62500000
    0.25000000    0.93750000    0.68750000
    0.25000000    0.93750000    0.75000000
    0.25000000    0.93750000    0.81250000
    0.25000000    0.93750000    0.87500000
    0.25000000    0.93750000    0.93750000
    0.31250000    0.00000000    0.00000000
    0.31250000    0.00000000    0.06250000
    0.31250000    0.00000000    0.12500000
    0.31250000    0.00000000    0.18750000
    0.31250000    0.00000000    0.25000000
    0.31250000    0.00000000    0.31250000
    0.31250000    0.00000000    0.37500000
    0.31250000    0.00000000    0.43750000
    0.31250000    0.00000000    0.50000000
    0.31250000    0.00000000    0.56250000
    0.31250000    0.00000000    0.62500000
    0.31250000    0.00000000    0.68750000
    0.31250000    0.00000000    0.75000000
    0.31250000    0.00000000    0.81250000
    0.31250000    0.00000000    0.87500000
    0.31250000    0.00000000    0.93750000
    0.31250000    0.06250000    0.00000000
    0.31250000    0.06250000    0.06250000
    0.31250000    0.06250000    0.12500000
    0.31250000    0.06250000    0.18750000
    0.31250000    0.06250000    0.25000000
    0.31250000    0.06250000    0.31250000
    0.31250000    0.06250000    0.37500000
    0.31250000    0.06250000    0.43750000
    0.31250000    0.06250000    0.50000000
    0.31250000    0.06250000    0.56250000
    0.31250000    0.06250000    0.62500000
    0.31250000    0.06250000    0.68750000
    0.31250000    0.06250000    0.75000000
    0.31250000    0.06250000    0.81250000
    0.31250000    0.06250000    0.87500000
    0.31250000    0.06250000    0.93750000
    0.31250000    0.12500000    0.00000000
    0.31250000    0.12500000    0.06250000
    0.31250000    0.12500000    0.12500000
    0.31250000    0.12500000    0.18750000
    0.31250000    0.12500000    0.25000000
    0.31250000    0.12500000    0.31250000
    0.31250000    0.12500000    0.37500000
    0.31250000    0.12500000    0.43750000
    0.31250000    0.12500000    0.50000000
    0.31250000    0.12500000    0.56250000
    0.31250000    0.12500000    0.62500000
    0.31250000    0.12500000    0.68750000
    0.31250000    0.12500000    0.75000000
    0.31250000    0.12500000    0.81250000
    0.31250000    0.12500000    0.87500000
    0.31250000    0.12500000    0.93750000
    0.31250000    0.18750000    0.00000000
    0.31250000    0.18750000    0.06250000
    0.31250000    0.18750000    0.12500000
    0.31250000    0.18750000    0.18750000
    0.31250000    0.18750000    0.25000000
    0.31250000    0.18750000    0.31250000
    0.31250000    0.18750000    0.37500000
    0.31250000    0.18750000    0.43750000
    0.31250000    0.18750000    0.50000000
    0.31250000    0.18750000    0.56250000
    0.31250000    0.18750000    0.62500000
    0.31250000    0.18750000    0.68750000
    0.31250000    0.18750000    0.75000000
    0.31250000    0.18750000    0.81250000
    0.31250000    0.18750000    0.87500000
    0.31250000    0.18750000    0.93750000
    0.31250000    0.25000000    0.00000000
    0.31250000    0.25000000    0.06250000
    0.31250000    0.25000000    0.12500000
    0.31250000    0.25000000    0.18750000
    0.31250000    0.25000000    0.25000000
    0.31250000    0.25000000    0.31250000
    0.31250000    0.25000000    0.37500000
    0.31250000    0.25000000    0.43750000
    0.31250000    0.25000000    0.50000000
    0.31250000    0.25000000    0.56250000
    0.31250000    0.25000000    0.62500000
    0.31250000    0.25000000    0.68750000
    0.31250000    0.25000000    0.75000000
    0.31250000    0.25000000    0.81250000
    0.31250000    0.25000000    0.87500000
    0.31250000    0.25000000    0.93750000
    0.31250000    0.31250000    0.00000000
    0.31250000    0.31250000    0.06250000
    0.31250000    0.31250000    0.12500000
    0.31250000    0.31250000    0.18750000
    0.31250000    0.31250000    0.25000000
    0.31250000    0.31250000    0.31250000
    0.31250000    0.31250000    0.37500000
    0.31250000    0.31250000    0.43750000
    0.31250000    0.31250000    0.50000000
    0.31250000    0.31250000    0.56250000
    0.31250000    0.31250000    0.62500000
    0.31250000    0.31250000    0.68750000
    0.31250000    0.31250000    0.75000000
    0.31250000    0.31250000    0.81250000
    0.31250000    0.31250000    0.87500000
    0.31250000    0.31250000    0.93750000
    0.31250000    0.37500000    0.00000000
    0.31250000    0.37500000    0.06250000
    0.31250000    0.37500000    0.12500000
    0.31250000    0.37500000    0.18750000
    0.31250000    0.37500000    0.25000000
    0.31250000    0.37500000    0.31250000
    0.31250000    0.37500000    0.37500000
    0.31250000    0.37500000    0.43750000
    0.31250000    0.37500000    0.50000000
    0.31250000    0.37500000    0.56250000
    0.31250000    0.37500000    0.62500000
    0.31250000    0.37500000    0.68750000
    0.31250000    0.37500000    0.75000000
    0.31250000    0.37500000    0.81250000
    0.31250000    0.37500000    0.87500000
    0.31250000    0.37500000    0.93750000
    0.31250000    0.43750000    0.00000000
    0.31250000    0.43750000    0.06250000
    0.31250000    0.43750000    0.12500000
    0.31250000    0.43750000    0.18750000
    0.31250000    0.43750000    0.25000000
    0.31250000    0.43750000    0.31250000
    0.31250000    0.43750000    0.37500000
    0.31250000    0.43750000    0.43750000
    0.31250000    0.43750000    0.50000000
    0.31250000    0.43750000    0.56250000
    0.31250000    0.43750000    0.62500000
    0.31250000    0.43750000    0.68750000
    0.31250000    0.43750000    0.75000000
    0.31250000    0.43750000    0.81250000
    0.31250000    0.43750000    0.87500000
    0.31250000    0.43750000    0.93750000
    0.31250000    0.50000000    0.00000000
    0.31250000    0.50000000    0.06250000
    0.31250000    0.50000000    0.12500000
    0.31250000    0.50000000    0.18750000
    0.31250000    0.50000000    0.25000000
    0.31250000    0.50000000    0.31250000
    0.31250000    0.50000000    0.37500000
    0.31250000    0.50000000    0.43750000
    0.31250000    0.50000000    0.50000000
    0.31250000    0.50000000    0.56250000
    0.31250000    0.50000000    0.62500000
    0.31250000    0.50000000    0.68750000
    0.31250000    0.50000000    0.75000000
    0.31250000    0.50000000    0.81250000
    0.31250000    0.50000000    0.87500000
    0.31250000    0.50000000    0.93750000
    0.31250000    0.56250000    0.00000000
    0.31250000    0.56250000    0.06250000
    0.31250000    0.56250000    0.12500000
    0.31250000    0.56250000    0.18750000
    0.31250000    0.56250000    0.25000000
    0.31250000    0.56250000    0.31250000
    0.31250000    0.56250000    0.37500000
    0.31250000    0.56250000    0.43750000
    0.31250000    0.56250000    0.50000000
    0.31250000    0.56250000    0.56250000
    0.31250000    0.56250000    0.62500000
    0.31250000    0.56250000    0.68750000
    0.31250000    0.56250000    0.75000000
    0.31250000    0.56250000    0.81250000
    0.31250000    0.56250000    0.87500000
    0.31250000    0.56250000    0.93750000
    0.31250000    0.62500000    0.00000000
    0.31250000    0.62500000    0.06250000
    0.31250000    0.62500000    0.12500000
    0.31250000    0.62500000    0.18750000
    0.31250000    0.62500000    0.25000000
    0.31250000    0.62500000    0.31250000
    0.31250000    0.62500000    0.37500000
    0.31250000    0.62500000    0.43750000
    0.31250000    0.62500000    0.50000000
    0.31250000    0.62500000    0.56250000
    0.31250000    0.62500000    0.62500000
    0.31250000    0.62500000    0.68750000
    0.31250000    0.62500000    0.75000000
    0.31250000    0.62500000    0.81250000
    0.31250000    0.62500000    0.87500000
    0.31250000    0.62500000    0.93750000
    0.31250000    0.68750000    0.00000000
    0.31250000    0.68750000    0.06250000
    0.31250000    0.68750000    0.12500000
    0.31250000    0.68750000    0.18750000
    0.31250000    0.68750000    0.25000000
    0.31250000    0.68750000    0.31250000
    0.31250000    0.68750000    0.37500000
    0.31250000    0.68750000    0.43750000
    0.31250000    0.68750000    0.50000000
    0.31250000    0.68750000    0.56250000
    0.31250000    0.68750000    0.62500000
    0.31250000    0.68750000    0.68750000
    0.31250000    0.68750000    0.75000000
    0.31250000    0.68750000    0.81250000
    0.31250000    0.68750000    0.87500000
    0.31250000    0.68750000    0.93750000
    0.31250000    0.75000000    0.00000000
    0.31250000    0.75000000    0.06250000
    0.31250000    0.75000000    0.12500000
    0.31250000    0.75000000    0.18750000
    0.31250000    0.75000000    0.25000000
    0.31250000    0.75000000    0.31250000
    0.31250000    0.75000000    0.37500000
    0.31250000    0.75000000    0.43750000
    0.31250000    0.75000000    0.50000000
    0.31250000    0.75000000    0.56250000
    0.31250000    0.75000000    0.62500000
    0.31250000    0.75000000    0.68750000
    0.31250000    0.75000000    0.75000000
    0.31250000    0.75000000    0.81250000
    0.31250000    0.75000000    0.87500000
    0.31250000    0.75000000    0.93750000
    0.31250000    0.81250000    0.00000000
    0.31250000    0.81250000    0.06250000
    0.31250000    0.81250000    0.12500000
    0.31250000    0.81250000    0.18750000
    0.31250000    0.81250000    0.25000000
    0.31250000    0.81250000    0.31250000
    0.31250000    0.81250000    0.37500000
    0.31250000    0.81250000    0.43750000
    0.31250000    0.81250000    0.50000000
    0.31250000    0.81250000    0.56250000
    0.31250000    0.81250000    0.62500000
    0.31250000    0.81250000    0.68750000
    0.31250000    0.81250000    0.75000000
    0.31250000    0.81250000    0.81250000
    0.31250000    0.81250000    0.87500000
    0.31250000    0.81250000    0.93750000
    0.31250000    0.87500000    0.00000000
    0.31250000    0.87500000    0.06250000
    0.31250000    0.87500000    0.12500000
    0.31250000    0.87500000    0.18750000
    0.31250000    0.87500000    0.25000000
    0.31250000    0.87500000    0.31250000
    0.31250000    0.87500000    0.37500000
    0.31250000    0.87500000    0.43750000
    0.31250000    0.87500000    0.50000000
    0.31250000    0.87500000    0.56250000
    0.31250000    0.87500000    0.62500000
    0.31250000    0.87500000    0.68750000
    0.31250000    0.87500000    0.75000000
    0.31250000    0.87500000    0.81250000
    0.31250000    0.87500000    0.87500000
    0.31250000    0.87500000    0.93750000
    0.31250000    0.93750000    0.00000000
    0.31250000    0.93750000    0.06250000
    0.31250000    0.93750000    0.12500000
    0.31250000    0.93750000    0.18750000
    0.31250000    0.93750000    0.25000000
    0.31250000    0.93750000    0.31250000
    0.31250000    0.93750000    0.37500000
    0.31250000    0.93750000    0.43750000
    0.31250000    0.93750000    0.50000000
    0.31250000    0.93750000    0.56250000
    0.31250000    0.93750000    0.62500000
    0.31250000    0.93750000    0.68750000
    0.31250000    0.93750000    0.75000000
    0.31250000    0.93750000    0.81250000
    0.31250000    0.93750000    0.87500000
    0.31250000    0.93750000    0.93750000
    0.37500000    0.00000000    0.00000000
    0.37500000    0.00000000    0.06250000
    0.37500000    0.00000000    0.12500000
    0.37500000    0.00000000    0.18750000
    0.37500000    0.00000000    0.25000000
    0.37500000    0.00000000    0.31250000
    0.37500000    0.00000000    0.37500000
    0.37500000    0.00000000    0.43750000
    0.37500000    0.00000000    0.50000000
    0.37500000    0.00000000    0.56250000
    0.37500000    0.00000000    0.62500000
    0.37500000    0.00000000    0.68750000
    0.37500000    0.00000000    0.75000000
    0.37500000    0.00000000    0.81250000
    0.37500000    0.00000000    0.87500000
    0.37500000    0.00000000    0.93750000
    0.37500000    0.06250000    0.00000000
    0.37500000    0.06250000    0.06250000
    0.37500000    0.06250000    0.12500000
    0.37500000    0.06250000    0.18750000
    0.37500000    0.06250000    0.25000000
    0.37500000    0.06250000    0.31250000
    0.37500000    0.06250000    0.37500000
    0.37500000    0.06250000    0.43750000
    0.37500000    0.06250000    0.50000000
    0.37500000    0.06250000    0.56250000
    0.37500000    0.06250000    0.62500000
    0.37500000    0.06250000    0.68750000
    0.37500000    0.06250000    0.75000000
    0.37500000    0.06250000    0.81250000
    0.37500000    0.06250000    0.87500000
    0.37500000    0.06250000    0.93750000
    0.37500000    0.12500000    0.00000000
    0.37500000    0.12500000    0.06250000
    0.37500000    0.12500000    0.12500000
    0.37500000    0.12500000    0.18750000
    0.37500000    0.12500000    0.25000000
    0.37500000    0.12500000    0.31250000
    0.37500000    0.12500000    0.37500000
    0.37500000    0.12500000    0.43750000
    0.37500000    0.12500000    0.50000000
    0.37500000    0.12500000    0.56250000
    0.37500000    0.12500000    0.62500000
    0.37500000    0.12500000    0.68750000
    0.37500000    0.12500000    0.75000000
    0.37500000    0.12500000    0.81250000
    0.37500000    0.12500000    0.87500000
    0.37500000    0.12500000    0.93750000
    0.37500000    0.18750000    0.00000000
    0.37500000    0.18750000    0.06250000
    0.37500000    0.18750000    0.12500000
    0.37500000    0.18750000    0.18750000
    0.37500000    0.18750000    0.25000000
    0.37500000    0.18750000    0.31250000
    0.37500000    0.18750000    0.37500000
    0.37500000    0.18750000    0.43750000
    0.37500000    0.18750000    0.50000000
    0.37500000    0.18750000    0.56250000
    0.37500000    0.18750000    0.62500000
    0.37500000    0.18750000    0.68750000
    0.37500000    0.18750000    0.75000000
    0.37500000    0.18750000    0.81250000
    0.37500000    0.18750000    0.87500000
    0.37500000    0.18750000    0.93750000
    0.37500000    0.25000000    0.00000000
    0.37500000    0.25000000    0.06250000
    0.37500000    0.25000000    0.12500000
    0.37500000    0.25000000    0.18750000
    0.37500000    0.25000000    0.25000000
    0.37500000    0.25000000    0.31250000
    0.37500000    0.25000000    0.37500000
    0.37500000    0.25000000    0.43750000
    0.37500000    0.25000000    0.50000000
    0.37500000    0.25000000    0.56250000
    0.37500000    0.25000000    0.62500000
    0.37500000    0.25000000    0.68750000
    0.37500000    0.25000000    0.75000000
    0.37500000    0.25000000    0.81250000
    0.37500000    0.25000000    0.87500000
    0.37500000    0.25000000    0.93750000
    0.37500000    0.31250000    0.00000000
    0.37500000    0.31250000    0.06250000
    0.37500000    0.31250000    0.12500000
    0.37500000    0.31250000    0.18750000
    0.37500000    0.31250000    0.25000000
    0.37500000    0.31250000    0.31250000
    0.37500000    0.31250000    0.37500000
    0.37500000    0.31250000    0.43750000
    0.37500000    0.31250000    0.50000000
    0.37500000    0.31250000    0.56250000
    0.37500000    0.31250000    0.62500000
    0.37500000    0.31250000    0.68750000
    0.37500000    0.31250000    0.75000000
    0.37500000    0.31250000    0.81250000
    0.37500000    0.31250000    0.87500000
    0.37500000    0.31250000    0.93750000
    0.37500000    0.37500000    0.00000000
    0.37500000    0.37500000    0.06250000
    0.37500000    0.37500000    0.12500000
    0.37500000    0.37500000    0.18750000
    0.37500000    0.37500000    0.25000000
    0.37500000    0.37500000    0.31250000
    0.37500000    0.37500000    0.37500000
    0.37500000    0.37500000    0.43750000
    0.37500000    0.37500000    0.50000000
    0.37500000    0.37500000    0.56250000
    0.37500000    0.37500000    0.62500000
    0.37500000    0.37500000    0.68750000
    0.37500000    0.37500000    0.75000000
    0.37500000    0.37500000    0.81250000
    0.37500000    0.37500000    0.87500000
    0.37500000    0.37500000    0.93750000
    0.37500000    0.43750000    0.00000000
    0.37500000    0.43750000    0.06250000
    0.37500000    0.43750000    0.12500000
    0.37500000    0.43750000    0.18750000
    0.37500000    0.43750000    0.25000000
    0.37500000    0.43750000    0.31250000
    0.37500000    0.43750000    0.37500000
    0.37500000    0.43750000    0.43750000
    0.37500000    0.43750000    0.50000000
    0.37500000    0.43750000    0.56250000
    0.37500000    0.43750000    0.62500000
    0.37500000    0.43750000    0.68750000
    0.37500000    0.43750000    0.75000000
    0.37500000    0.43750000    0.81250000
    0.37500000    0.43750000    0.87500000
    0.37500000    0.43750000    0.93750000
    0.37500000    0.50000000    0.00000000
    0.37500000    0.50000000    0.06250000
    0.37500000    0.50000000    0.12500000
    0.37500000    0.50000000    0.18750000
    0.37500000    0.50000000    0.25000000
    0.37500000    0.50000000    0.31250000
    0.37500000    0.50000000    0.37500000
    0.37500000    0.50000000    0.43750000
    0.37500000    0.50000000    0.50000000
    0.37500000    0.50000000    0.56250000
    0.37500000    0.50000000    0.62500000
    0.37500000    0.50000000    0.68750000
    0.37500000    0.50000000    0.75000000
    0.37500000    0.50000000    0.81250000
    0.37500000    0.50000000    0.87500000
    0.37500000    0.50000000    0.93750000
    0.37500000    0.56250000    0.00000000
    0.37500000    0.56250000    0.06250000
    0.37500000    0.56250000    0.12500000
    0.37500000    0.56250000    0.18750000
    0.37500000    0.56250000    0.25000000
    0.37500000    0.56250000    0.31250000
    0.37500000    0.56250000    0.37500000
    0.37500000    0.56250000    0.43750000
    0.37500000    0.56250000    0.50000000
    0.37500000    0.56250000    0.56250000
    0.37500000    0.56250000    0.62500000
    0.37500000    0.56250000    0.68750000
    0.37500000    0.56250000    0.75000000
    0.37500000    0.56250000    0.81250000
    0.37500000    0.56250000    0.87500000
    0.37500000    0.56250000    0.93750000
    0.37500000    0.62500000    0.00000000
    0.37500000    0.62500000    0.06250000
    0.37500000    0.62500000    0.12500000
    0.37500000    0.62500000    0.18750000
    0.37500000    0.62500000    0.25000000
    0.37500000    0.62500000    0.31250000
    0.37500000    0.62500000    0.37500000
    0.37500000    0.62500000    0.43750000
    0.37500000    0.62500000    0.50000000
    0.37500000    0.62500000    0.56250000
    0.37500000    0.62500000    0.62500000
    0.37500000    0.62500000    0.68750000
    0.37500000    0.62500000    0.75000000
    0.37500000    0.62500000    0.81250000
    0.37500000    0.62500000    0.87500000
    0.37500000    0.62500000    0.93750000
    0.37500000    0.68750000    0.00000000
    0.37500000    0.68750000    0.06250000
    0.37500000    0.68750000    0.12500000
    0.37500000    0.68750000    0.18750000
    0.37500000    0.68750000    0.25000000
    0.37500000    0.68750000    0.31250000
    0.37500000    0.68750000    0.37500000
    0.37500000    0.68750000    0.43750000
    0.37500000    0.68750000    0.50000000
    0.37500000    0.68750000    0.56250000
    0.37500000    0.68750000    0.62500000
    0.37500000    0.68750000    0.68750000
    0.37500000    0.68750000    0.75000000
    0.37500000    0.68750000    0.81250000
    0.37500000    0.68750000    0.87500000
    0.37500000    0.68750000    0.93750000
    0.37500000    0.75000000    0.00000000
    0.37500000    0.75000000    0.06250000
    0.37500000    0.75000000    0.12500000
    0.37500000    0.75000000    0.18750000
    0.37500000    0.75000000    0.25000000
    0.37500000    0.75000000    0.31250000
    0.37500000    0.75000000    0.37500000
    0.37500000    0.75000000    0.43750000
    0.37500000    0.75000000    0.50000000
    0.37500000    0.75000000    0.56250000
    0.37500000    0.75000000    0.62500000
    0.37500000    0.75000000    0.68750000
    0.37500000    0.75000000    0.75000000
    0.37500000    0.75000000    0.81250000
    0.37500000    0.75000000    0.87500000
    0.37500000    0.75000000    0.93750000
    0.37500000    0.81250000    0.00000000
    0.37500000    0.81250000    0.06250000
    0.37500000    0.81250000    0.12500000
    0.37500000    0.81250000    0.18750000
    0.37500000    0.81250000    0.25000000
    0.37500000    0.81250000    0.31250000
    0.37500000    0.81250000    0.37500000
    0.37500000    0.81250000    0.43750000
    0.37500000    0.81250000    0.50000000
    0.37500000    0.81250000    0.56250000
    0.37500000    0.81250000    0.62500000
    0.37500000    0.81250000    0.68750000
    0.37500000    0.81250000    0.75000000
    0.37500000    0.81250000    0.81250000
    0.37500000    0.81250000    0.87500000
    0.37500000    0.81250000    0.93750000
    0.37500000    0.87500000    0.00000000
    0.37500000    0.87500000    0.06250000
    0.37500000    0.87500000    0.12500000
    0.37500000    0.87500000    0.18750000
    0.37500000    0.87500000    0.25000000
    0.37500000    0.87500000    0.31250000
    0.37500000    0.87500000    0.37500000
    0.37500000    0.87500000    0.43750000
    0.37500000    0.87500000    0.50000000
    0.37500000    0.87500000    0.56250000
    0.37500000    0.87500000    0.62500000
    0.37500000    0.87500000    0.68750000
    0.37500000    0.87500000    0.75000000
    0.37500000    0.87500000    0.81250000
    0.37500000    0.87500000    0.87500000
    0.37500000    0.87500000    0.93750000
    0.37500000    0.93750000    0.00000000
    0.37500000    0.93750000    0.06250000
    0.37500000    0.93750000    0.12500000
    0.37500000    0.93750000    0.18750000
    0.37500000    0.93750000    0.25000000
    0.37500000    0.93750000    0.31250000
    0.37500000    0.93750000    0.37500000
    0.37500000    0.93750000    0.43750000
    0.37500000    0.93750000    0.50000000
    0.37500000    0.93750000    0.56250000
    0.37500000    0.93750000    0.62500000
    0.37500000    0.93750000    0.68750000
    0.37500000    0.93750000    0.75000000
    0.37500000    0.93750000    0.81250000
    0.37500000    0.93750000    0.87500000
    0.37500000    0.93750000    0.93750000
    0.43750000    0.00000000    0.00000000
    0.43750000    0.00000000    0.06250000
    0.43750000    0.00000000    0.12500000
    0.43750000    0.00000000    0.18750000
    0.43750000    0.00000000    0.25000000
    0.43750000    0.00000000    0.31250000
    0.43750000    0.00000000    0.37500000
    0.43750000    0.00000000    0.43750000
    0.43750000    0.00000000    0.50000000
    0.43750000    0.00000000    0.56250000
    0.43750000    0.00000000    0.62500000
    0.43750000    0.00000000    0.68750000
    0.43750000    0.00000000    0.75000000
    0.43750000    0.00000000    0.81250000
    0.43750000    0.00000000    0.87500000
    0.43750000    0.00000000    0.93750000
    0.43750000    0.06250000    0.00000000
    0.43750000    0.06250000    0.06250000
    0.43750000    0.06250000    0.12500000
    0.43750000    0.06250000    0.18750000
    0.43750000    0.06250000    0.25000000
    0.43750000    0.06250000    0.31250000
    0.43750000    0.06250000    0.37500000
    0.43750000    0.06250000    0.43750000
    0.43750000    0.06250000    0.50000000
    0.43750000    0.06250000    0.56250000
    0.43750000    0.06250000    0.62500000
    0.43750000    0.06250000    0.68750000
    0.43750000    0.06250000    0.75000000
    0.43750000    0.06250000    0.81250000
    0.43750000    0.06250000    0.87500000
    0.43750000    0.06250000    0.93750000
    0.43750000    0.12500000    0.00000000
    0.43750000    0.12500000    0.06250000
    0.43750000    0.12500000    0.12500000
    0.43750000    0.12500000    0.18750000
    0.43750000    0.12500000    0.25000000
    0.43750000    0.12500000    0.31250000
    0.43750000    0.12500000    0.37500000
    0.43750000    0.12500000    0.43750000
    0.43750000    0.12500000    0.50000000
    0.43750000    0.12500000    0.56250000
    0.43750000    0.12500000    0.62500000
    0.43750000    0.12500000    0.68750000
    0.43750000    0.12500000    0.75000000
    0.43750000    0.12500000    0.81250000
    0.43750000    0.12500000    0.87500000
    0.43750000    0.12500000    0.93750000
    0.43750000    0.18750000    0.00000000
    0.43750000    0.18750000    0.06250000
    0.43750000    0.18750000    0.12500000
    0.43750000    0.18750000    0.18750000
    0.43750000    0.18750000    0.25000000
    0.43750000    0.18750000    0.31250000
    0.43750000    0.18750000    0.37500000
    0.43750000    0.18750000    0.43750000
    0.43750000    0.18750000    0.50000000
    0.43750000    0.18750000    0.56250000
    0.43750000    0.18750000    0.62500000
[...]
  3978  3977      0   0   0
  3978  3979      0   0   0
  3978  3994      0   0   0
  3978   138      1   0   0
  3979  3723      0   0   0
  3979  3963      0   0   0
  3979  3978      0   0   0
  3979  3980      0   0   0
  3979  3995      0   0   0
  3979   139      1   0   0
  3980  3724      0   0   0
  3980  3964      0   0   0
  3980  3979      0   0   0
  3980  3981      0   0   0
  3980  3996      0   0   0
  3980   140      1   0   0
  3981  3725      0   0   0
  3981  3965      0   0   0
  3981  3980      0   0   0
  3981  3982      0   0   0
  3981  3997      0   0   0
  3981   141      1   0   0
  3982  3726      0   0   0
  3982  3966      0   0   0
  3982  3981      0   0   0
  3982  3983      0   0   0
  3982  3998      0   0   0
  3982   142      1   0   0
  3983  3727      0   0   0
  3983  3967      0   0   0
  3983  3982      0   0   0
  3983  3984      0   0   0
  3983  3999      0   0   0
  3983   143      1   0   0
  3984  3728      0   0   0
  3984  3968      0   0   0
  3984  3983      0   0   0
  3984  4000      0   0   0
  3984   144      1   0   0
  3984  3969      0   0   1
  3985  3729      0   0   0
  3985  3969      0   0   0
  3985  3986      0   0   0
  3985  4001      0   0   0
  3985   145      1   0   0
  3985  4000      0   0  -1
  3986  3730      0   0   0
  3986  3970      0   0   0
  3986  3985      0   0   0
  3986  3987      0   0   0
  3986  4002      0   0   0
  3986   146      1   0   0
  3987  3731      0   0   0
  3987  3971      0   0   0
  3987  3986      0   0   0
  3987  3988      0   0   0
  3987  4003      0   0   0
  3987   147      1   0   0
  3988  3732      0   0   0
  3988  3972      0   0   0
  3988  3987      0   0   0
  3988  3989      0   0   0
  3988  4004      0   0   0
  3988   148      1   0   0
  3989  3733      0   0   0
  3989  3973      0   0   0
  3989  3988      0   0   0
  3989  3990      0   0   0
  3989  4005      0   0   0
  3989   149      1   0   0
  3990  3734      0   0   0
  3990  3974      0   0   0
  3990  3989      0   0   0
  3990  3991      0   0   0
  3990  4006      0   0   0
  3990   150      1   0   0
  3991  3735      0   0   0
  3991  3975      0   0   0
  3991  3990      0   0   0
  3991  3992      0   0   0
  3991  4007      0   0   0
  3991   151      1   0   0
  3992  3736      0   0   0
  3992  3976      0   0   0
  3992  3991      0   0   0
  3992  3993      0   0   0
  3992  4008      0   0   0
  3992   152      1   0   0
  3993  3737      0   0   0
  3993  3977      0   0   0
  3993  3992      0   0   0
  3993  3994      0   0   0
  3993  4009      0   0   0
  3993   153      1   0   0
  3994  3738      0   0   0
  3994  3978      0   0   0
  3994  3993      0   0   0
  3994  3995      0   0   0
  3994  4010      0   0   0
  3994   154      1   0   0
  3995  3739      0   0   0
  3995  3979      0   0   0
  3995  3994      0   0   0
  3995  3996      0   0   0
  3995  4011      0   0   0
  3995   155      1   0   0
  3996  3740      0   0   0
  3996  3980      0   0   0
  3996  3995      0   0   0
  3996  3997      0   0   0
  3996  4012      0   0   0
  3996   156      1   0   0
  3997  3741      0   0   0
  3997  3981      0   0   0
  3997  3996      0   0   0
  3997  3998      0   0   0
  3997  4013      0   0   0
  3997   157      1   0   0
  3998  3742      0   0   0
  3998  3982      0   0   0
  3998  3997      0   0   0
  3998  3999      0   0   0
  3998  4014      0   0   0
  3998   158      1   0   0
  3999  3743      0   0   0
  3999  3983      0   0   0
  3999  3998      0   0   0
  3999  4000      0   0   0
  3999  4015      0   0   0
  3999   159      1   0   0
  4000  3744      0   0   0
  4000  3984      0   0   0
  4000  3999      0   0   0
  4000  4016      0   0   0
  4000   160      1   0   0
  4000  3985      0   0   1
  4001  3745      0   0   0
  4001  3985      0   0   0
  4001  4002      0   0   0
  4001  4017      0   0   0
  4001   161      1   0   0
  4001  4016      0   0  -1
  4002  3746      0   0   0
  4002  3986      0   0   0
  4002  4001      0   0   0
  4002  4003      0   0   0
  4002  4018      0   0   0
  4002   162      1   0   0
  4003  3747      0   0   0
  4003  3987      0   0   0
  4003  4002      0   0   0
  4003  4004      0   0   0
  4003  4019      0   0   0
  4003   163      1   0   0
  4004  3748      0   0   0
  4004  3988      0   0   0
  4004  4003      0   0   0
  4004  4005      0   0   0
  4004  4020      0   0   0
  4004   164      1   0   0
  4005  3749      0   0   0
  4005  3989      0   0   0
  4005  4004      0   0   0
  4005  4006      0   0   0
  4005  4021      0   0   0
  4005   165      1   0   0
  4006  3750      0   0   0
  4006  3990      0   0   0
  4006  4005      0   0   0
  4006  4007      0   0   0
  4006  4022      0   0   0
  4006   166      1   0   0
  4007  3751      0   0   0
  4007  3991      0   0   0
  4007  4006      0   0   0
  4007  4008      0   0   0
  4007  4023      0   0   0
  4007   167      1   0   0
  4008  3752      0   0   0
  4008  3992      0   0   0
  4008  4007      0   0   0
  4008  4009      0   0   0
  4008  4024      0   0   0
  4008   168      1   0   0
  4009  3753      0   0   0
  4009  3993      0   0   0
  4009  4008      0   0   0
  4009  4010      0   0   0
  4009  4025      0   0   0
  4009   169      1   0   0
  4010  3754      0   0   0
  4010  3994      0   0   0
  4010  4009      0   0   0
  4010  4011      0   0   0
  4010  4026      0   0   0
  4010   170      1   0   0
  4011  3755      0   0   0
  4011  3995      0   0   0
  4011  4010      0   0   0
  4011  4012      0   0   0
  4011  4027      0   0   0
  4011   171      1   0   0
  4012  3756      0   0   0
  4012  3996      0   0   0
  4012  4011      0   0   0
  4012  4013      0   0   0
  4012  4028      0   0   0
  4012   172      1   0   0
  4013  3757      0   0   0
  4013  3997      0   0   0
  4013  4012      0   0   0
  4013  4014      0   0   0
  4013  4029      0   0   0
  4013   173      1   0   0
  4014  3758      0   0   0
  4014  3998      0   0   0
  4014  4013      0   0   0
  4014  4015      0   0   0
  4014  4030      0   0   0
  4014   174      1   0   0
  4015  3759      0   0   0
  4015  3999      0   0   0
  4015  4014      0   0   0
  4015  4016      0   0   0
  4015  4031      0   0   0
  4015   175      1   0   0
  4016  3760      0   0   0
  4016  4000      0   0   0
  4016  4015      0   0   0
  4016  4032      0   0   0
  4016   176      1   0   0
  4016  4001      0   0   1
  4017  3761      0   0   0
  4017  4001      0   0   0
  4017  4018      0   0   0
  4017  4033      0   0   0
  4017   177      1   0   0
  4017  4032      0   0  -1
  4018  3762      0   0   0
  4018  4002      0   0   0
  4018  4017      0   0   0
  4018  4019      0   0   0
  4018  4034      0   0   0
  4018   178      1   0   0
  4019  3763      0   0   0
  4019  4003      0   0   0
  4019  4018      0   0   0
  4019  4020      0   0   0
  4019  4035      0   0   0
  4019   179      1   0   0
  4020  3764      0   0   0
  4020  4004      0   0   0
  4020  4019      0   0   0
  4020  4021      0   0   0
  4020  4036      0   0   0
  4020   180      1   0   0
  4021  3765      0   0   0
  4021  4005      0   0   0
  4021  4020      0   0   0
  4021  4022      0   0   0
  4021  4037      0   0   0
  4021   181      1   0   0
  4022  3766      0   0   0
  4022  4006      0   0   0
  4022  4021      0   0   0
  4022  4023      0   0   0
  4022  4038      0   0   0
  4022   182      1   0   0
  4023  3767      0   0   0
  4023  4007      0   0   0
  4023  4022      0   0   0
  4023  4024      0   0   0
  4023  4039      0   0   0
  4023   183      1   0   0
  4024  3768      0   0   0
  4024  4008      0   0   0
  4024  4023      0   0   0
  4024  4025      0   0   0
  4024  4040      0   0   0
  4024   184      1   0   0
  4025  3769      0   0   0
  4025  4009      0   0   0
  4025  4024      0   0   0
  4025  4026      0   0   0
  4025  4041      0   0   0
  4025   185      1   0   0
  4026  3770      0   0   0
  4026  4010      0   0   0
  4026  4025      0   0   0
  4026  4027      0   0   0
  4026  4042      0   0   0
  4026   186      1   0   0
  4027  3771      0   0   0
  4027  4011      0   0   0
  4027  4026      0   0   0
  4027  4028      0   0   0
  4027  4043      0   0   0
  4027   187      1   0   0
  4028  3772      0   0   0
  4028  4012      0   0   0
  4028  4027      0   0   0
  4028  4029      0   0   0
  4028  4044      0   0   0
  4028   188      1   0   0
  4029  3773      0   0   0
  4029  4013      0   0   0
  4029  4028      0   0   0
  4029  4030      0   0   0
  4029  4045      0   0   0
  4029   189      1   0   0
  4030  3774      0   0   0
  4030  4014      0   0   0
  4030  4029      0   0   0
  4030  4031      0   0   0
  4030  4046      0   0   0
  4030   190      1   0   0
  4031  3775      0   0   0
  4031  4015      0   0   0
  4031  4030      0   0   0
  4031  4032      0   0   0
  4031  4047      0   0   0
  4031   191      1   0   0
  4032  3776      0   0   0
  4032  4016      0   0   0
  4032  4031      0   0   0
  4032  4048      0   0   0
  4032   192      1   0   0
  4032  4017      0   0   1
  4033  3777      0   0   0
  4033  4017      0   0   0
  4033  4034      0   0   0
  4033  4049      0   0   0
  4033   193      1   0   0
  4033  4048      0   0  -1
  4034  3778      0   0   0
  4034  4018      0   0   0
  4034  4033      0   0   0
  4034  4035      0   0   0
  4034  4050      0   0   0
  4034   194      1   0   0
  4035  3779      0   0   0
  4035  4019      0   0   0
  4035  4034      0   0   0
  4035  4036      0   0   0
  4035  4051      0   0   0
  4035   195      1   0   0
  4036  3780      0   0   0
  4036  4020      0   0   0
  4036  4035      0   0   0
  4036  4037      0   0   0
  4036  4052      0   0   0
  4036   196      1   0   0
  4037  3781      0   0   0
  4037  4021      0   0   0
  4037  4036      0   0   0
  4037  4038      0   0   0
  4037  4053      0   0   0
  4037   197      1   0   0
  4038  3782      0   0   0
  4038  4022      0   0   0
  4038  4037      0   0   0
  4038  4039      0   0   0
  4038  4054      0   0   0
  4038   198      1   0   0
  4039  3783      0   0   0
  4039  4023      0   0   0
  4039  4038      0   0   0
  4039  4040      0   0   0
  4039  4055      0   0   0
  4039   199      1   0   0
  4040  3784      0   0   0
  4040  4024      0   0   0
  4040  4039      0   0   0
  4040  4041      0   0   0
  4040  4056      0   0   0
  4040   200      1   0   0
  4041  3785      0   0   0
  4041  4025      0   0   0
  4041  4040      0   0   0
  4041  4042      0   0   0
  4041  4057      0   0   0
  4041   201      1   0   0
  4042  3786      0   0   0
  4042  4026      0   0   0
  4042  4041      0   0   0
  4042  4043      0   0   0
  4042  4058      0   0   0
  4042   202      1   0   0
  4043  3787      0   0   0
  4043  4027      0   0   0
  4043  4042      0   0   0
  4043  4044      0   0   0
  4043  4059      0   0   0
  4043   203      1   0   0
  4044  3788      0   0   0
  4044  4028      0   0   0
  4044  4043      0   0   0
  4044  4045      0   0   0
  4044  4060      0   0   0
  4044   204      1   0   0
  4045  3789      0   0   0
  4045  4029      0   0   0
  4045  4044      0   0   0
  4045  4046      0   0   0
  4045  4061      0   0   0
  4045   205      1   0   0
  4046  3790      0   0   0
  4046  4030      0   0   0
  4046  4045      0   0   0
  4046  4047      0   0   0
  4046  4062      0   0   0
  4046   206      1   0   0
  4047  3791      0   0   0
  4047  4031      0   0   0
  4047  4046      0   0   0
  4047  4048      0   0   0
  4047  4063      0   0   0
  4047   207      1   0   0
  4048  3792      0   0   0
  4048  4032      0   0   0
  4048  4047      0   0   0
  4048  4064      0   0   0
  4048   208      1   0   0
  4048  4033      0   0   1
  4049  3793      0   0   0
  4049  4033      0   0   0
  4049  4050      0   0   0
  4049  4065      0   0   0
  4049   209      1   0   0
  4049  4064      0   0  -1
  4050  3794      0   0   0
  4050  4034      0   0   0
  4050  4049      0   0   0
  4050  4051      0   0   0
  4050  4066      0   0   0
  4050   210      1   0   0
  4051  3795      0   0   0
  4051  4035      0   0   0
  4051  4050      0   0   0
  4051  4052      0   0   0
  4051  4067      0   0   0
  4051   211      1   0   0
  4052  3796      0   0   0
  4052  4036      0   0   0
  4052  4051      0   0   0
  4052  4053      0   0   0
  4052  4068      0   0   0
  4052   212      1   0   0
  4053  3797      0   0   0
  4053  4037      0   0   0
  4053  4052      0   0   0
  4053  4054      0   0   0
  4053  4069      0   0   0
  4053   213      1   0   0
  4054  3798      0   0   0
  4054  4038      0   0   0
  4054  4053      0   0   0
  4054  4055      0   0   0
  4054  4070      0   0   0
  4054   214      1   0   0
  4055  3799      0   0   0
  4055  4039      0   0   0
  4055  4054      0   0   0
  4055  4056      0   0   0
  4055  4071      0   0   0
  4055   215      1   0   0
  4056  3800      0   0   0
  4056  4040      0   0   0
  4056  4055      0   0   0
  4056  4057      0   0   0
  4056  4072      0   0   0
  4056   216      1   0   0
  4057  3801      0   0   0
  4057  4041      0   0   0
  4057  4056      0   0   0
  4057  4058      0   0   0
  4057  4073      0   0   0
  4057   217      1   0   0
  4058  3802      0   0   0
  4058  4042      0   0   0
  4058  4057      0   0   0
  4058  4059      0   0   0
  4058  4074      0   0   0
  4058   218      1   0   0
  4059  3803      0   0   0
  4059  4043      0   0   0
  4059  4058      0   0   0
  4059  4060      0   0   0
  4059  4075      0   0   0
  4059   219      1   0   0
  4060  3804      0   0   0
  4060  4044      0   0   0
  4060  4059      0   0   0
  4060  4061      0   0   0
  4060  4076      0   0   0
  4060   220      1   0   0
  4061  3805      0   0   0
  4061  4045      0   0   0
  4061  4060      0   0   0
  4061  4062      0   0   0
  4061  4077      0   0   0
  4061   221      1   0   0
  4062  3806      0   0   0
  4062  4046      0   0   0
  4062  4061      0   0   0
  4062  4063      0   0   0
  4062  4078      0   0   0
  4062   222      1   0   0
  4063  3807      0   0   0
  4063  4047      0   0   0
  4063  4062      0   0   0
  4063  4064      0   0   0
  4063  4079      0   0   0
  4063   223      1   0   0
  4064  3808      0   0   0
  4064  4048      0   0   0
  4064  4063      0   0   0
  4064  4080      0   0   0
  4064   224      1   0   0
  4064  4049      0   0   1
  4065  3809      0   0   0
  4065  4049      0   0   0
  4065  4066      0   0   0
  4065  4081      0   0   0
  4065   225      1   0   0
  4065  4080      0   0  -1
  4066  3810      0   0   0
  4066  4050      0   0   0
  4066  4065      0   0   0
  4066  4067      0   0   0
  4066  4082      0   0   0
  4066   226      1   0   0
  4067  3811      0   0   0
  4067  4051      0   0   0
  4067  4066      0   0   0
  4067  4068      0   0   0
  4067  4083      0   0   0
  4067   227      1   0   0
  4068  3812      0   0   0
  4068  4052      0   0   0
  4068  4067      0   0   0
  4068  4069      0   0   0
  4068  4084      0   0   0
  4068   228      1   0   0
  4069  3813      0   0   0
  4069  4053      0   0   0
  4069  4068      0   0   0
  4069  4070      0   0   0
  4069  4085      0   0   0
  4069   229      1   0   0
  4070  3814      0   0   0
  4070  4054      0   0   0
  4070  4069      0   0   0
  4070  4071      0   0   0
  4070  4086      0   0   0
  4070   230      1   0   0
  4071  3815      0   0   0
  4071  4055      0   0   0
  4071  4070      0   0   0
  4071  4072      0   0   0
  4071  4087      0   0   0
  4071   231      1   0   0
  4072  3816      0   0   0
  4072  4056      0   0   0
  4072  4071      0   0   0
  4072  4073      0   0   0
  4072  4088      0   0   0
  4072   232      1   0   0
  4073  3817      0   0   0
  4073  4057      0   0   0
  4073  4072      0   0   0
  4073  4074      0   0   0
  4073  4089      0   0   0
  4073   233      1   0   0
  4074  3818      0   0   0
  4074  4058      0   0   0
  4074  4073      0   0   0
  4074  4075      0   0   0
  4074  4090      0   0   0
  4074   234      1   0   0
  4075  3819      0   0   0
  4075  4059      0   0   0
  4075  4074      0   0   0
  4075  4076      0   0   0
  4075  4091      0   0   0
  4075   235      1   0   0
  4076  3820      0   0   0
  4076  4060      0   0   0
  4076  4075      0   0   0
  4076  4077      0   0   0
  4076  4092      0   0   0
  4076   236      1   0   0
  4077  3821      0   0   0
  4077  4061      0   0   0
  4077  4076      0   0   0
  4077  4078      0   0   0
  4077  4093      0   0   0
  4077   237      1   0   0
  4078  3822      0   0   0
  4078  4062      0   0   0
  4078  4077      0   0   0
  4078  4079      0   0   0
  4078  4094      0   0   0
  4078   238      1   0   0
  4079  3823      0   0   0
  4079  4063      0   0   0
  4079  4078      0   0   0
  4079  4080      0   0   0
  4079  4095      0   0   0
  4079   239      1   0   0
  4080  3824      0   0   0
  4080  4064      0   0   0
  4080  4079      0   0   0
  4080  4096      0   0   0
  4080   240      1   0   0
  4080  4065      0   0   1
  4081  3825      0   0   0
  4081  4065      0   0   0
  4081  4082      0   0   0
  4081   241      1   0   0
  4081  3841      0   1   0
  4081  4096      0   0  -1
  4082  3826      0   0   0
  4082  4066      0   0   0
  4082  4081      0   0   0
  4082  4083      0   0   0
  4082   242      1   0   0
  4082  3842      0   1   0
  4083  3827      0   0   0
  4083  4067      0   0   0
  4083  4082      0   0   0
  4083  4084      0   0   0
  4083   243      1   0   0
  4083  3843      0   1   0
  4084  3828      0   0   0
  4084  4068      0   0   0
  4084  4083      0   0   0
  4084  4085      0   0   0
  4084   244      1   0   0
  4084  3844      0   1   0
  4085  3829      0   0   0
  4085  4069      0   0   0
  4085  4084      0   0   0
  4085  4086      0   0   0
  4085   245      1   0   0
  4085  3845      0   1   0
  4086  3830      0   0   0
  4086  4070      0   0   0
  4086  4085      0   0   0
  4086  4087      0   0   0
  4086   246      1   0   0
  4086  3846      0   1   0
  4087  3831      0   0   0
  4087  4071      0   0   0
  4087  4086      0   0   0
  4087  4088      0   0   0
  4087   247      1   0   0
  4087  3847      0   1   0
  4088  3832      0   0   0
  4088  4072      0   0   0
  4088  4087      0   0   0
  4088  4089      0   0   0
  4088   248      1   0   0
  4088  3848      0   1   0
  4089  3833      0   0   0
  4089  4073      0   0   0
  4089  4088      0   0   0
  4089  4090      0   0   0
  4089   249      1   0   0
  4089  3849      0   1   0
  4090  3834      0   0   0
  4090  4074      0   0   0
  4090  4089      0   0   0
  4090  4091      0   0   0
  4090   250      1   0   0
  4090  3850      0   1   0
  4091  3835      0   0   0
  4091  4075      0   0   0
  4091  4090      0   0   0
  4091  4092      0   0   0
  4091   251      1   0   0
  4091  3851      0   1   0
  4092  3836      0   0   0
  4092  4076      0   0   0
  4092  4091      0   0   0
  4092  4093      0   0   0
  4092   252      1   0   0
  4092  3852      0   1   0
  4093  3837      0   0   0
  4093  4077      0   0   0
  4093  4092      0   0   0
  4093  4094      0   0   0
  4093   253      1   0   0
  4093  3853      0   1   0
  4094  3838      0   0   0
  4094  4078      0   0   0
  4094  4093      0   0   0
  4094  4095      0   0   0
  4094   254      1   0   0
  4094  3854      0   1   0
  4095  3839      0   0   0
  4095  4079      0   0   0
  4095  4094      0   0   0
  4095  4096      0   0   0
  4095   255      1   0   0
  4095  3855      0   1   0
  4096  3840      0   0   0
  4096  4080      0   0   0
  4096  4095      0   0   0
  4096   256      1   0   0
  4096  3856      0   1   0
  4096  4081      0   0   1
end nnkpts

begin exclude_bands
   0
end exclude_bands
