 
             +---------------------------------------------------+
             |                                                   |
             |                   WANNIER90                       |
             |                                                   |
             +---------------------------------------------------+
             |                                                   |
             |        Welcome to the Maximally-Localized         |
             |        Generalized Wannier Functions code         |
             |            http://www.wannier.org                 |
             |                                                   |
             |                                                   |
             |  Wannier90 Developer Group:                       |
             |    Giovanni Pizzi    (EPFL)                       |
             |    Valerio Vitale    (Cambridge)                  |
             |    David Vanderbilt  (Rutgers University)         |
             |    Nicola Marzari    (EPFL)                       |
             |    Ivo Souza         (Universidad del Pais Vasco) |
             |    Arash A. Mostofi  (Imperial College London)    |
             |    Jonathan R. Yates (University of Oxford)       |
             |                                                   |
             |  For the full list of Wannier90 3.x authors,      |
             |  please check the code documentation and the      |
             |  README on the GitHub page of the code            |
             |                                                   |
             |                                                   |
             |  Please cite                                      |
             |                                                   |
             |  [ref] "Wannier90 as a community code:            |
             |        new features and applications",            |
             |        G. Pizzi et al., J. Phys. Cond. Matt. 32,  |
             |        165902 (2020).                             |
             |        http://doi.org/10.1088/1361-648X/ab51ff    |
             |                                                   |
             |  in any publications arising from the use of      |
             |  this code. For the method please cite            |
             |                                                   |
             |  [ref] "Maximally Localized Generalised Wannier   |
             |         Functions for Composite Energy Bands"     |
             |         N. Marzari and D. Vanderbilt              |
             |         Phys. Rev. B 56 12847 (1997)              |
             |                                                   |
             |  [ref] "Maximally Localized Wannier Functions     |
             |         for Entangled Energy Bands"               |
             |         I. Souza, N. Marzari and D. Vanderbilt    |
             |         Phys. Rev. B 65 035109 (2001)             |
             |                                                   |
             |                                                   |
             | Copyright (c) 1996-2020                           |
             |        The Wannier90 Developer Group and          |
             |        individual contributors                    |
             |                                                   |
             |      Release: 3.1.0        5th March    2020      |
             |                                                   |
             | This program is free software; you can            |
             | redistribute it and/or modify it under the terms  |
             | of the GNU General Public License as published by |
             | the Free Software Foundation; either version 2 of |
             | the License, or (at your option) any later version|
             |                                                   |
             | This program is distributed in the hope that it   |
             | will be useful, but WITHOUT ANY WARRANTY; without |
             | even the implied warranty of MERCHANTABILITY or   |
             | FITNESS FOR A PARTICULAR PURPOSE. See the GNU     |
             | General Public License for more details.          |
             |                                                   |
             | You should have received a copy of the GNU General|
             | Public License along with this program; if not,   |
             | write to the Free Software Foundation, Inc.,      |
             | 675 Mass Ave, Cambridge, MA 02139, USA.           |
             |                                                   |
             +---------------------------------------------------+
             |    Execution started on 25Sep2024 at 12:37:31     |
             +---------------------------------------------------+
 
 ******************************************************************************
 * -> Using CODATA 2006 constant values                                       *
 *    (http://physics.nist.gov/cuu/Constants/index.html)                      *
 * -> Using Bohr value from CODATA                                            *
 ******************************************************************************
 

 Running in parallel on  72 CPUs

 Exiting.......
 No BPO.eig file found. Needed for disentanglement
 
             +---------------------------------------------------+
             |                                                   |
             |                   WANNIER90                       |
             |                                                   |
             +---------------------------------------------------+
             |                                                   |
             |        Welcome to the Maximally-Localized         |
             |        Generalized Wannier Functions code         |
             |            http://www.wannier.org                 |
             |                                                   |
             |                                                   |
             |  Wannier90 Developer Group:                       |
             |    Giovanni Pizzi    (EPFL)                       |
             |    Valerio Vitale    (Cambridge)                  |
             |    David Vanderbilt  (Rutgers University)         |
             |    Nicola Marzari    (EPFL)                       |
             |    Ivo Souza         (Universidad del Pais Vasco) |
             |    Arash A. Mostofi  (Imperial College London)    |
             |    Jonathan R. Yates (University of Oxford)       |
             |                                                   |
             |  For the full list of Wannier90 3.x authors,      |
             |  please check the code documentation and the      |
             |  README on the GitHub page of the code            |
             |                                                   |
             |                                                   |
             |  Please cite                                      |
             |                                                   |
             |  [ref] "Wannier90 as a community code:            |
             |        new features and applications",            |
             |        G. Pizzi et al., J. Phys. Cond. Matt. 32,  |
             |        165902 (2020).                             |
             |        http://doi.org/10.1088/1361-648X/ab51ff    |
             |                                                   |
             |  in any publications arising from the use of      |
             |  this code. For the method please cite            |
             |                                                   |
             |  [ref] "Maximally Localized Generalised Wannier   |
             |         Functions for Composite Energy Bands"     |
             |         N. Marzari and D. Vanderbilt              |
             |         Phys. Rev. B 56 12847 (1997)              |
             |                                                   |
             |  [ref] "Maximally Localized Wannier Functions     |
             |         for Entangled Energy Bands"               |
             |         I. Souza, N. Marzari and D. Vanderbilt    |
             |         Phys. Rev. B 65 035109 (2001)             |
             |                                                   |
             |                                                   |
             | Copyright (c) 1996-2020                           |
             |        The Wannier90 Developer Group and          |
             |        individual contributors                    |
             |                                                   |
             |      Release: 3.1.0        5th March    2020      |
             |                                                   |
             | This program is free software; you can            |
             | redistribute it and/or modify it under the terms  |
             | of the GNU General Public License as published by |
             | the Free Software Foundation; either version 2 of |
             | the License, or (at your option) any later version|
             |                                                   |
             | This program is distributed in the hope that it   |
             | will be useful, but WITHOUT ANY WARRANTY; without |
             | even the implied warranty of MERCHANTABILITY or   |
             | FITNESS FOR A PARTICULAR PURPOSE. See the GNU     |
             | General Public License for more details.          |
             |                                                   |
             | You should have received a copy of the GNU General|
             | Public License along with this program; if not,   |
             | write to the Free Software Foundation, Inc.,      |
             | 675 Mass Ave, Cambridge, MA 02139, USA.           |
             |                                                   |
             +---------------------------------------------------+
             |    Execution started on 26Sep2024 at 06:30:20     |
             +---------------------------------------------------+
 
 ******************************************************************************
 * -> Using CODATA 2006 constant values                                       *
 *    (http://physics.nist.gov/cuu/Constants/index.html)                      *
 * -> Using Bohr value from CODATA                                            *
 ******************************************************************************
 

 Running in parallel on  32 CPUs

 
                                    ------
                                    SYSTEM
                                    ------
 
                              Lattice Vectors (Ang)
                    a_1     4.360000   0.000000   0.000000
                    a_2     0.000000   4.360000   0.000000
                    a_3     0.000000   0.000000   4.360000
 
                   Unit Cell Volume:      82.88186  (Ang^3)
 
                        Reciprocal-Space Vectors (Ang^-1)
                    b_1     1.441098   0.000000   0.000000
                    b_2     0.000000   1.441098   0.000000
                    b_3     0.000000   0.000000   1.441098
  
 *----------------------------------------------------------------------------*
 |   Site       Fractional Coordinate          Cartesian Coordinate (Ang)     |
 +----------------------------------------------------------------------------+
 | Ba   1   0.50000   0.50000   0.50000   |    2.18000   2.18000   2.18000    |
 | Pb   1   0.00000   0.00000   0.00000   |    0.00000   0.00000   0.00000    |
 | O    1   0.50000   0.00000   0.00000   |    2.18000   0.00000   0.00000    |
 | O    2   0.00000   0.50000   0.00000   |    0.00000   2.18000   0.00000    |
 | O    3   0.00000   0.00000   0.50000   |    0.00000   0.00000   2.18000    |
 *----------------------------------------------------------------------------*
  
  
 *-------------------------------- POSTW90 -----------------------------------*
 |  Number of Wannier Functions               :                20             |
 |  Number of electrons per state             :                 1             |
 |  Scissor shift applied to conduction bands :             0.000             |
 |  Number of valence bands                   :       not defined             |
 |  Fermi energy (eV)                         :             8.566             |
 |  Output verbosity (1=low, 5=high)          :                 1             |
 |  Timing Level (1=low, 5=high)              :                 1             |
 |  Optimisation (0=memory, 3=speed)          :                 3             |
 |  Length Unit                               :               Ang             |
 *----------------------------------------------------------------------------*
 *------------------------ Global Smearing Parameters ------------------------*
 |  Adaptive width smearing                   :                 T             |
 |  Adaptive smearing factor                  :             1.414             |
 |  Maximum allowed smearing width (eV)       :             1.000             |
 |  Smearing Function                                             Gaussian    |
 |  Global interpolation k-points defined     :                 F             |
 *----------------------------------------------------------------------------*
 *----------------------------------------------------------------------------*
 *--------------------------------- BERRY ------------------------------------*
 |  Compute Berry Phase related properties    :                 T             |
 |  Compute Optical Conductivity and JDOS     :                 F             |
 |  Compute Anomalous Hall Conductivity       :                 F             |
 |  Compute Shift Current                     :                 F             |
 |  Compute Orbital Magnetisation             :                 F             |
 |  Compute Spin Hall Conductivity            :                 T             |
 |  Lower frequency for optical responses     :             0.000             |
 |  Upper frequency for optical responses     :             3.101             |
 |  Step size for optical responses           :             0.010             |
 |  Upper eigenvalue for optical responses    :            11.667             |
 |  Using global smearing parameters                                          |
 |  Grid size                                 :   100 x 100 x 100             |
 |  Adaptive refinement                       :              none             |
 *----------------------------------------------------------------------------*
 Time to read parameters        0.050 (sec)

 *---------------------------------- K-MESH ----------------------------------*
 +----------------------------------------------------------------------------+
 |                    Distance to Nearest-Neighbour Shells                    |
 |                    ------------------------------------                    |
 |          Shell             Distance (Ang^-1)          Multiplicity         |
 |          -----             -----------------          ------------         |
 |             1                   0.180137                      6            |
 |             2                   0.254752                     12            |
 |             3                   0.312007                      8            |
 |             4                   0.360274                      6            |
 |             5                   0.402799                     24            |
 |             6                   0.441244                     24            |
 |             7                   0.509505                     12            |
 |             8                   0.540412                     30            |
 |             9                   0.569644                     24            |
 |            10                   0.597447                     24            |
 |            11                   0.624014                      8            |
 |            12                   0.649494                     24            |
 |            13                   0.674012                     48            |
 |            14                   0.720549                      6            |
 |            15                   0.742725                     48            |
 |            16                   0.764257                     36            |
 |            17                   0.785200                     24            |
 |            18                   0.805598                     24            |
 |            19                   0.825492                     48            |
 |            20                   0.844918                     24            |
 |            21                   0.882488                     24            |
 |            22                   0.900686                     30            |
 |            23                   0.918523                     72            |
 |            24                   0.936020                     32            |
 |            25                   0.970068                     72            |
 |            26                   0.986652                     48            |
 |            27                   1.019010                     12            |
 |            28                   1.034809                     48            |
 |            29                   1.050371                     48            |
 |            30                   1.065706                     48            |
 |            31                   1.080823                     30            |
 |            32                   1.095732                     24            |
 |            33                   1.110440                     72            |
 |            34                   1.139288                     24            |
 |            35                   1.153441                     96            |
 |            36                   1.167422                     48            |
 +----------------------------------------------------------------------------+
 | The b-vectors are chosen automatically                                     |
 | The following shells are used:   1                                         |
 +----------------------------------------------------------------------------+
 |                        Shell   # Nearest-Neighbours                        |
 |                        -----   --------------------                        |
 |                          1               6                                 |
 +----------------------------------------------------------------------------+
 | Completeness relation is fully satisfied [Eq. (B1), PRB 56, 12847 (1997)]  |
 +----------------------------------------------------------------------------+
 |                  b_k Vectors (Ang^-1) and Weights (Ang^2)                  |
 |                  ----------------------------------------                  |
 |            No.         b_k(x)      b_k(y)      b_k(z)        w_b           |
 |            ---        --------------------------------     --------        |
 |             1         0.000000    0.000000    0.180137    15.408602        |
 |             2         0.000000    0.180137    0.000000    15.408602        |
 |             3         0.180137    0.000000    0.000000    15.408602        |
 |             4         0.000000    0.000000   -0.180137    15.408602        |
 |             5         0.000000   -0.180137    0.000000    15.408602        |
 |             6        -0.180137    0.000000    0.000000    15.408602        |
 +----------------------------------------------------------------------------+
 |                           b_k Directions (Ang^-1)                          |
 |                           -----------------------                          |
 |            No.           x           y           z                         |
 |            ---        --------------------------------                     |
 |             1         0.000000    0.000000    0.180137                     |
 |             2         0.000000    0.180137    0.000000                     |
 |             3         0.180137    0.000000    0.000000                     |
 +----------------------------------------------------------------------------+
  
 Time to get kmesh              0.229 (sec)
 Reading restart information from file BPO.chk :
 Exiting.......
 Error opening BPO.chk in param_read_chkpt: did you run wannier90.x first?
 
             +---------------------------------------------------+
             |                                                   |
             |                   WANNIER90                       |
             |                                                   |
             +---------------------------------------------------+
             |                                                   |
             |        Welcome to the Maximally-Localized         |
             |        Generalized Wannier Functions code         |
             |            http://www.wannier.org                 |
             |                                                   |
             |                                                   |
             |  Wannier90 Developer Group:                       |
             |    Giovanni Pizzi    (EPFL)                       |
             |    Valerio Vitale    (Cambridge)                  |
             |    David Vanderbilt  (Rutgers University)         |
             |    Nicola Marzari    (EPFL)                       |
             |    Ivo Souza         (Universidad del Pais Vasco) |
             |    Arash A. Mostofi  (Imperial College London)    |
             |    Jonathan R. Yates (University of Oxford)       |
             |                                                   |
             |  For the full list of Wannier90 3.x authors,      |
             |  please check the code documentation and the      |
             |  README on the GitHub page of the code            |
             |                                                   |
             |                                                   |
             |  Please cite                                      |
             |                                                   |
             |  [ref] "Wannier90 as a community code:            |
             |        new features and applications",            |
             |        G. Pizzi et al., J. Phys. Cond. Matt. 32,  |
             |        165902 (2020).                             |
             |        http://doi.org/10.1088/1361-648X/ab51ff    |
             |                                                   |
             |  in any publications arising from the use of      |
             |  this code. For the method please cite            |
             |                                                   |
             |  [ref] "Maximally Localized Generalised Wannier   |
             |         Functions for Composite Energy Bands"     |
             |         N. Marzari and D. Vanderbilt              |
             |         Phys. Rev. B 56 12847 (1997)              |
             |                                                   |
             |  [ref] "Maximally Localized Wannier Functions     |
             |         for Entangled Energy Bands"               |
             |         I. Souza, N. Marzari and D. Vanderbilt    |
             |         Phys. Rev. B 65 035109 (2001)             |
             |                                                   |
             |                                                   |
             | Copyright (c) 1996-2020                           |
             |        The Wannier90 Developer Group and          |
             |        individual contributors                    |
             |                                                   |
             |      Release: 3.1.0        5th March    2020      |
             |                                                   |
             | This program is free software; you can            |
             | redistribute it and/or modify it under the terms  |
             | of the GNU General Public License as published by |
             | the Free Software Foundation; either version 2 of |
             | the License, or (at your option) any later version|
             |                                                   |
             | This program is distributed in the hope that it   |
             | will be useful, but WITHOUT ANY WARRANTY; without |
             | even the implied warranty of MERCHANTABILITY or   |
             | FITNESS FOR A PARTICULAR PURPOSE. See the GNU     |
             | General Public License for more details.          |
             |                                                   |
             | You should have received a copy of the GNU General|
             | Public License along with this program; if not,   |
             | write to the Free Software Foundation, Inc.,      |
             | 675 Mass Ave, Cambridge, MA 02139, USA.           |
             |                                                   |
             +---------------------------------------------------+
             |    Execution started on 26Sep2024 at 12:48:08     |
             +---------------------------------------------------+
 
 ******************************************************************************
 * -> Using CODATA 2006 constant values                                       *
 *    (http://physics.nist.gov/cuu/Constants/index.html)                      *
 * -> Using Bohr value from CODATA                                            *
 ******************************************************************************
 

 Running in parallel on  32 CPUs

 
                                    ------
                                    SYSTEM
                                    ------
 
                              Lattice Vectors (Ang)
                    a_1     4.360000   0.000000   0.000000
                    a_2     0.000000   4.360000   0.000000
                    a_3     0.000000   0.000000   4.360000
 
                   Unit Cell Volume:      82.88186  (Ang^3)
 
                        Reciprocal-Space Vectors (Ang^-1)
                    b_1     1.441098   0.000000   0.000000
                    b_2     0.000000   1.441098   0.000000
                    b_3     0.000000   0.000000   1.441098
  
 *----------------------------------------------------------------------------*
 |   Site       Fractional Coordinate          Cartesian Coordinate (Ang)     |
 +----------------------------------------------------------------------------+
 | Ba   1   0.50000   0.50000   0.50000   |    2.18000   2.18000   2.18000    |
 | Pb   1   0.00000   0.00000   0.00000   |    0.00000   0.00000   0.00000    |
 | O    1   0.50000   0.00000   0.00000   |    2.18000   0.00000   0.00000    |
 | O    2   0.00000   0.50000   0.00000   |    0.00000   2.18000   0.00000    |
 | O    3   0.00000   0.00000   0.50000   |    0.00000   0.00000   2.18000    |
 *----------------------------------------------------------------------------*
  
  
 *-------------------------------- POSTW90 -----------------------------------*
 |  Number of Wannier Functions               :                20             |
 |  Number of electrons per state             :                 1             |
 |  Scissor shift applied to conduction bands :             0.000             |
 |  Number of valence bands                   :       not defined             |
 |  Fermi energy (eV)                         :             8.566             |
 |  Output verbosity (1=low, 5=high)          :                 1             |
 |  Timing Level (1=low, 5=high)              :                 1             |
 |  Optimisation (0=memory, 3=speed)          :                 3             |
 |  Length Unit                               :               Ang             |
 *----------------------------------------------------------------------------*
 *------------------------ Global Smearing Parameters ------------------------*
 |  Adaptive width smearing                   :                 T             |
 |  Adaptive smearing factor                  :             1.414             |
 |  Maximum allowed smearing width (eV)       :             1.000             |
 |  Smearing Function                                             Gaussian    |
 |  Global interpolation k-points defined     :                 F             |
 *----------------------------------------------------------------------------*
 *----------------------------------------------------------------------------*
 *--------------------------------- BERRY ------------------------------------*
 |  Compute Berry Phase related properties    :                 T             |
 |  Compute Optical Conductivity and JDOS     :                 F             |
 |  Compute Anomalous Hall Conductivity       :                 F             |
 |  Compute Shift Current                     :                 F             |
 |  Compute Orbital Magnetisation             :                 F             |
 |  Compute Spin Hall Conductivity            :                 T             |
 |  Lower frequency for optical responses     :             0.000             |
 |  Upper frequency for optical responses     :             3.101             |
 |  Step size for optical responses           :             0.010             |
 |  Upper eigenvalue for optical responses    :            11.667             |
 |  Using global smearing parameters                                          |
 |  Grid size                                 :   100 x 100 x 100             |
 |  Adaptive refinement                       :              none             |
 *----------------------------------------------------------------------------*
 Time to read parameters        0.051 (sec)

 *---------------------------------- K-MESH ----------------------------------*
 +----------------------------------------------------------------------------+
 |                    Distance to Nearest-Neighbour Shells                    |
 |                    ------------------------------------                    |
 |          Shell             Distance (Ang^-1)          Multiplicity         |
 |          -----             -----------------          ------------         |
 |             1                   0.180137                      6            |
 |             2                   0.254752                     12            |
 |             3                   0.312007                      8            |
 |             4                   0.360274                      6            |
 |             5                   0.402799                     24            |
 |             6                   0.441244                     24            |
 |             7                   0.509505                     12            |
 |             8                   0.540412                     30            |
 |             9                   0.569644                     24            |
 |            10                   0.597447                     24            |
 |            11                   0.624014                      8            |
 |            12                   0.649494                     24            |
 |            13                   0.674012                     48            |
 |            14                   0.720549                      6            |
 |            15                   0.742725                     48            |
 |            16                   0.764257                     36            |
 |            17                   0.785200                     24            |
 |            18                   0.805598                     24            |
 |            19                   0.825492                     48            |
 |            20                   0.844918                     24            |
 |            21                   0.882488                     24            |
 |            22                   0.900686                     30            |
 |            23                   0.918523                     72            |
 |            24                   0.936020                     32            |
 |            25                   0.970068                     72            |
 |            26                   0.986652                     48            |
 |            27                   1.019010                     12            |
 |            28                   1.034809                     48            |
 |            29                   1.050371                     48            |
 |            30                   1.065706                     48            |
 |            31                   1.080823                     30            |
 |            32                   1.095732                     24            |
 |            33                   1.110440                     72            |
 |            34                   1.139288                     24            |
 |            35                   1.153441                     96            |
 |            36                   1.167422                     48            |
 +----------------------------------------------------------------------------+
 | The b-vectors are chosen automatically                                     |
 | The following shells are used:   1                                         |
 +----------------------------------------------------------------------------+
 |                        Shell   # Nearest-Neighbours                        |
 |                        -----   --------------------                        |
 |                          1               6                                 |
 +----------------------------------------------------------------------------+
 | Completeness relation is fully satisfied [Eq. (B1), PRB 56, 12847 (1997)]  |
 +----------------------------------------------------------------------------+
 |                  b_k Vectors (Ang^-1) and Weights (Ang^2)                  |
 |                  ----------------------------------------                  |
 |            No.         b_k(x)      b_k(y)      b_k(z)        w_b           |
 |            ---        --------------------------------     --------        |
 |             1         0.000000    0.000000    0.180137    15.408602        |
 |             2         0.000000    0.180137    0.000000    15.408602        |
 |             3         0.180137    0.000000    0.000000    15.408602        |
 |             4         0.000000    0.000000   -0.180137    15.408602        |
 |             5         0.000000   -0.180137    0.000000    15.408602        |
 |             6        -0.180137    0.000000    0.000000    15.408602        |
 +----------------------------------------------------------------------------+
 |                           b_k Directions (Ang^-1)                          |
 |                           -----------------------                          |
 |            No.           x           y           z                         |
 |            ---        --------------------------------                     |
 |             1         0.000000    0.000000    0.180137                     |
 |             2         0.000000    0.180137    0.000000                     |
 |             3         0.180137    0.000000    0.000000                     |
 +----------------------------------------------------------------------------+
  
 Time to get kmesh              0.229 (sec)
 Reading restart information from file BPO.chk :
 Exiting.......
 Error opening BPO.chk in param_read_chkpt: did you run wannier90.x first?
 
             +---------------------------------------------------+
             |                                                   |
             |                   WANNIER90                       |
             |                                                   |
             +---------------------------------------------------+
             |                                                   |
             |        Welcome to the Maximally-Localized         |
             |        Generalized Wannier Functions code         |
             |            http://www.wannier.org                 |
             |                                                   |
             |                                                   |
             |  Wannier90 Developer Group:                       |
             |    Giovanni Pizzi    (EPFL)                       |
             |    Valerio Vitale    (Cambridge)                  |
             |    David Vanderbilt  (Rutgers University)         |
             |    Nicola Marzari    (EPFL)                       |
             |    Ivo Souza         (Universidad del Pais Vasco) |
             |    Arash A. Mostofi  (Imperial College London)    |
             |    Jonathan R. Yates (University of Oxford)       |
             |                                                   |
             |  For the full list of Wannier90 3.x authors,      |
             |  please check the code documentation and the      |
             |  README on the GitHub page of the code            |
             |                                                   |
             |                                                   |
             |  Please cite                                      |
             |                                                   |
             |  [ref] "Wannier90 as a community code:            |
             |        new features and applications",            |
             |        G. Pizzi et al., J. Phys. Cond. Matt. 32,  |
             |        165902 (2020).                             |
             |        http://doi.org/10.1088/1361-648X/ab51ff    |
             |                                                   |
             |  in any publications arising from the use of      |
             |  this code. For the method please cite            |
             |                                                   |
             |  [ref] "Maximally Localized Generalised Wannier   |
             |         Functions for Composite Energy Bands"     |
             |         N. Marzari and D. Vanderbilt              |
             |         Phys. Rev. B 56 12847 (1997)              |
             |                                                   |
             |  [ref] "Maximally Localized Wannier Functions     |
             |         for Entangled Energy Bands"               |
             |         I. Souza, N. Marzari and D. Vanderbilt    |
             |         Phys. Rev. B 65 035109 (2001)             |
             |                                                   |
             |                                                   |
             | Copyright (c) 1996-2020                           |
             |        The Wannier90 Developer Group and          |
             |        individual contributors                    |
             |                                                   |
             |      Release: 3.1.0        5th March    2020      |
             |                                                   |
             | This program is free software; you can            |
             | redistribute it and/or modify it under the terms  |
             | of the GNU General Public License as published by |
             | the Free Software Foundation; either version 2 of |
             | the License, or (at your option) any later version|
             |                                                   |
             | This program is distributed in the hope that it   |
             | will be useful, but WITHOUT ANY WARRANTY; without |
             | even the implied warranty of MERCHANTABILITY or   |
             | FITNESS FOR A PARTICULAR PURPOSE. See the GNU     |
             | General Public License for more details.          |
             |                                                   |
             | You should have received a copy of the GNU General|
             | Public License along with this program; if not,   |
             | write to the Free Software Foundation, Inc.,      |
             | 675 Mass Ave, Cambridge, MA 02139, USA.           |
             |                                                   |
             +---------------------------------------------------+
             |    Execution started on 26Sep2024 at 16:14:40     |
             +---------------------------------------------------+
 
 ******************************************************************************
 * -> Using CODATA 2006 constant values                                       *
 *    (http://physics.nist.gov/cuu/Constants/index.html)                      *
 * -> Using Bohr value from CODATA                                            *
 ******************************************************************************
 

 Running in parallel on  32 CPUs

 
                                    ------
                                    SYSTEM
                                    ------
 
                              Lattice Vectors (Ang)
                    a_1     4.360000   0.000000   0.000000
                    a_2     0.000000   4.360000   0.000000
                    a_3     0.000000   0.000000   4.360000
 
                   Unit Cell Volume:      82.88186  (Ang^3)
 
                        Reciprocal-Space Vectors (Ang^-1)
                    b_1     1.441098   0.000000   0.000000
                    b_2     0.000000   1.441098   0.000000
                    b_3     0.000000   0.000000   1.441098
  
 *----------------------------------------------------------------------------*
 |   Site       Fractional Coordinate          Cartesian Coordinate (Ang)     |
 +----------------------------------------------------------------------------+
 | Ba   1   0.50000   0.50000   0.50000   |    2.18000   2.18000   2.18000    |
 | Pb   1   0.00000   0.00000   0.00000   |    0.00000   0.00000   0.00000    |
 | O    1   0.50000   0.00000   0.00000   |    2.18000   0.00000   0.00000    |
 | O    2   0.00000   0.50000   0.00000   |    0.00000   2.18000   0.00000    |
 | O    3   0.00000   0.00000   0.50000   |    0.00000   0.00000   2.18000    |
 *----------------------------------------------------------------------------*
  
  
 *-------------------------------- POSTW90 -----------------------------------*
 |  Number of Wannier Functions               :                20             |
 |  Number of electrons per state             :                 1             |
 |  Scissor shift applied to conduction bands :             0.000             |
 |  Number of valence bands                   :       not defined             |
 |  Fermi energy (eV)                         :             8.566             |
 |  Output verbosity (1=low, 5=high)          :                 1             |
 |  Timing Level (1=low, 5=high)              :                 1             |
 |  Optimisation (0=memory, 3=speed)          :                 3             |
 |  Length Unit                               :               Ang             |
 *----------------------------------------------------------------------------*
 *------------------------ Global Smearing Parameters ------------------------*
 |  Adaptive width smearing                   :                 T             |
 |  Adaptive smearing factor                  :             1.414             |
 |  Maximum allowed smearing width (eV)       :             1.000             |
 |  Smearing Function                                             Gaussian    |
 |  Global interpolation k-points defined     :                 F             |
 *----------------------------------------------------------------------------*
 *----------------------------------------------------------------------------*
 *--------------------------------- BERRY ------------------------------------*
 |  Compute Berry Phase related properties    :                 T             |
 |  Compute Optical Conductivity and JDOS     :                 F             |
 |  Compute Anomalous Hall Conductivity       :                 F             |
 |  Compute Shift Current                     :                 F             |
 |  Compute Orbital Magnetisation             :                 F             |
 |  Compute Spin Hall Conductivity            :                 T             |
 |  Lower frequency for optical responses     :             0.000             |
 |  Upper frequency for optical responses     :             3.101             |
 |  Step size for optical responses           :             0.010             |
 |  Upper eigenvalue for optical responses    :            11.667             |
 |  Using global smearing parameters                                          |
 |  Grid size                                 :   100 x 100 x 100             |
 |  Adaptive refinement                       :              none             |
 *----------------------------------------------------------------------------*
 Time to read parameters        0.050 (sec)

 *---------------------------------- K-MESH ----------------------------------*
 +----------------------------------------------------------------------------+
 |                    Distance to Nearest-Neighbour Shells                    |
 |                    ------------------------------------                    |
 |          Shell             Distance (Ang^-1)          Multiplicity         |
 |          -----             -----------------          ------------         |
 |             1                   0.180137                      6            |
 |             2                   0.254752                     12            |
 |             3                   0.312007                      8            |
 |             4                   0.360274                      6            |
 |             5                   0.402799                     24            |
 |             6                   0.441244                     24            |
 |             7                   0.509505                     12            |
 |             8                   0.540412                     30            |
 |             9                   0.569644                     24            |
 |            10                   0.597447                     24            |
 |            11                   0.624014                      8            |
 |            12                   0.649494                     24            |
 |            13                   0.674012                     48            |
 |            14                   0.720549                      6            |
 |            15                   0.742725                     48            |
 |            16                   0.764257                     36            |
 |            17                   0.785200                     24            |
 |            18                   0.805598                     24            |
 |            19                   0.825492                     48            |
 |            20                   0.844918                     24            |
 |            21                   0.882488                     24            |
 |            22                   0.900686                     30            |
 |            23                   0.918523                     72            |
 |            24                   0.936020                     32            |
 |            25                   0.970068                     72            |
 |            26                   0.986652                     48            |
 |            27                   1.019010                     12            |
 |            28                   1.034809                     48            |
 |            29                   1.050371                     48            |
 |            30                   1.065706                     48            |
 |            31                   1.080823                     30            |
 |            32                   1.095732                     24            |
 |            33                   1.110440                     72            |
 |            34                   1.139288                     24            |
 |            35                   1.153441                     96            |
 |            36                   1.167422                     48            |
 +----------------------------------------------------------------------------+
 | The b-vectors are chosen automatically                                     |
 | The following shells are used:   1                                         |
 +----------------------------------------------------------------------------+
 |                        Shell   # Nearest-Neighbours                        |
 |                        -----   --------------------                        |
 |                          1               6                                 |
 +----------------------------------------------------------------------------+
 | Completeness relation is fully satisfied [Eq. (B1), PRB 56, 12847 (1997)]  |
 +----------------------------------------------------------------------------+
 |                  b_k Vectors (Ang^-1) and Weights (Ang^2)                  |
 |                  ----------------------------------------                  |
 |            No.         b_k(x)      b_k(y)      b_k(z)        w_b           |
 |            ---        --------------------------------     --------        |
 |             1         0.000000    0.000000    0.180137    15.408602        |
 |             2         0.000000    0.180137    0.000000    15.408602        |
 |             3         0.180137    0.000000    0.000000    15.408602        |
 |             4         0.000000    0.000000   -0.180137    15.408602        |
 |             5         0.000000   -0.180137    0.000000    15.408602        |
 |             6        -0.180137    0.000000    0.000000    15.408602        |
 +----------------------------------------------------------------------------+
 |                           b_k Directions (Ang^-1)                          |
 |                           -----------------------                          |
 |            No.           x           y           z                         |
 |            ---        --------------------------------                     |
 |             1         0.000000    0.000000    0.180137                     |
 |             2         0.000000    0.180137    0.000000                     |
 |             3         0.180137    0.000000    0.000000                     |
 +----------------------------------------------------------------------------+
  
 Time to get kmesh              0.229 (sec)
 Reading restart information from file BPO.chk :
 Exiting.......
 Error opening BPO.chk in param_read_chkpt: did you run wannier90.x first?
 
             +---------------------------------------------------+
             |                                                   |
             |                   WANNIER90                       |
             |                                                   |
             +---------------------------------------------------+
             |                                                   |
             |        Welcome to the Maximally-Localized         |
             |        Generalized Wannier Functions code         |
             |            http://www.wannier.org                 |
             |                                                   |
             |                                                   |
             |  Wannier90 Developer Group:                       |
             |    Giovanni Pizzi    (EPFL)                       |
             |    Valerio Vitale    (Cambridge)                  |
             |    David Vanderbilt  (Rutgers University)         |
             |    Nicola Marzari    (EPFL)                       |
             |    Ivo Souza         (Universidad del Pais Vasco) |
             |    Arash A. Mostofi  (Imperial College London)    |
             |    Jonathan R. Yates (University of Oxford)       |
             |                                                   |
             |  For the full list of Wannier90 3.x authors,      |
             |  please check the code documentation and the      |
             |  README on the GitHub page of the code            |
             |                                                   |
             |                                                   |
             |  Please cite                                      |
             |                                                   |
             |  [ref] "Wannier90 as a community code:            |
             |        new features and applications",            |
             |        G. Pizzi et al., J. Phys. Cond. Matt. 32,  |
             |        165902 (2020).                             |
             |        http://doi.org/10.1088/1361-648X/ab51ff    |
             |                                                   |
             |  in any publications arising from the use of      |
             |  this code. For the method please cite            |
             |                                                   |
             |  [ref] "Maximally Localized Generalised Wannier   |
             |         Functions for Composite Energy Bands"     |
             |         N. Marzari and D. Vanderbilt              |
             |         Phys. Rev. B 56 12847 (1997)              |
             |                                                   |
             |  [ref] "Maximally Localized Wannier Functions     |
             |         for Entangled Energy Bands"               |
             |         I. Souza, N. Marzari and D. Vanderbilt    |
             |         Phys. Rev. B 65 035109 (2001)             |
             |                                                   |
             |                                                   |
             | Copyright (c) 1996-2020                           |
             |        The Wannier90 Developer Group and          |
             |        individual contributors                    |
             |                                                   |
             |      Release: 3.1.0        5th March    2020      |
             |                                                   |
             | This program is free software; you can            |
             | redistribute it and/or modify it under the terms  |
             | of the GNU General Public License as published by |
             | the Free Software Foundation; either version 2 of |
             | the License, or (at your option) any later version|
             |                                                   |
             | This program is distributed in the hope that it   |
             | will be useful, but WITHOUT ANY WARRANTY; without |
             | even the implied warranty of MERCHANTABILITY or   |
             | FITNESS FOR A PARTICULAR PURPOSE. See the GNU     |
             | General Public License for more details.          |
             |                                                   |
             | You should have received a copy of the GNU General|
             | Public License along with this program; if not,   |
             | write to the Free Software Foundation, Inc.,      |
             | 675 Mass Ave, Cambridge, MA 02139, USA.           |
             |                                                   |
             +---------------------------------------------------+
             |    Execution started on 29Sep2024 at 07:27:03     |
             +---------------------------------------------------+
 
 ******************************************************************************
 * -> Using CODATA 2006 constant values                                       *
 *    (http://physics.nist.gov/cuu/Constants/index.html)                      *
 * -> Using Bohr value from CODATA                                            *
 ******************************************************************************
 

 Running in parallel on  32 CPUs

 
                                    ------
                                    SYSTEM
                                    ------
 
                              Lattice Vectors (Ang)
                    a_1     4.360000   0.000000   0.000000
                    a_2     0.000000   4.360000   0.000000
                    a_3     0.000000   0.000000   4.360000
 
                   Unit Cell Volume:      82.88186  (Ang^3)
 
                        Reciprocal-Space Vectors (Ang^-1)
                    b_1     1.441098   0.000000   0.000000
                    b_2     0.000000   1.441098   0.000000
                    b_3     0.000000   0.000000   1.441098
  
 *----------------------------------------------------------------------------*
 |   Site       Fractional Coordinate          Cartesian Coordinate (Ang)     |
 +----------------------------------------------------------------------------+
 | Ba   1   0.50000   0.50000   0.50000   |    2.18000   2.18000   2.18000    |
 | Pb   1   0.00000   0.00000   0.00000   |    0.00000   0.00000   0.00000    |
 | O    1   0.50000   0.00000   0.00000   |    2.18000   0.00000   0.00000    |
 | O    2   0.00000   0.50000   0.00000   |    0.00000   2.18000   0.00000    |
 | O    3   0.00000   0.00000   0.50000   |    0.00000   0.00000   2.18000    |
 *----------------------------------------------------------------------------*
  
  
 *-------------------------------- POSTW90 -----------------------------------*
 |  Number of Wannier Functions               :                20             |
 |  Number of electrons per state             :                 1             |
 |  Scissor shift applied to conduction bands :             0.000             |
 |  Number of valence bands                   :       not defined             |
 |  Fermi energy (eV)                         :             8.566             |
 |  Output verbosity (1=low, 5=high)          :                 1             |
 |  Timing Level (1=low, 5=high)              :                 1             |
 |  Optimisation (0=memory, 3=speed)          :                 3             |
 |  Length Unit                               :               Ang             |
 *----------------------------------------------------------------------------*
 *------------------------ Global Smearing Parameters ------------------------*
 |  Adaptive width smearing                   :                 T             |
 |  Adaptive smearing factor                  :             1.414             |
 |  Maximum allowed smearing width (eV)       :             1.000             |
 |  Smearing Function                                             Gaussian    |
 |  Global interpolation k-points defined     :                 F             |
 *----------------------------------------------------------------------------*
 *----------------------------------------------------------------------------*
 *--------------------------------- KPATH ------------------------------------*
 |  Plot Properties along a path in k-space   :                 T             |
 |  Divisions along first kpath section       :               400             |
 |  Plot energy bands                         :                 T             |
 |  Plot Berry curvature                      :                 F             |
 |  Plot orbital magnetisation contribution   :                 F             |
 |  Plot spin Hall conductivity contribution  :                 T             |
 |  Property used to colour code the bands    :               shc             |
 *----------------------------------------------------------------------------*
 |   K-space path sections:                                                   |
 |    From:  G    0.000  0.000  0.000     To:  X    0.000  0.500  0.000       |
 |    From:  X    0.000  0.500  0.000     To:  M    0.500  0.500  0.000       |
 |    From:  M    0.500  0.500  0.000     To:  R    0.500  0.500  0.500       |
 |    From:  R    0.500  0.500  0.500     To:  G    0.000  0.000  0.000       |
 |    From:  G    0.000  0.000  0.000     To:  M    0.500  0.500  0.000       |
 *----------------------------------------------------------------------------*
 Time to read parameters        0.049 (sec)

 *---------------------------------- K-MESH ----------------------------------*
 +----------------------------------------------------------------------------+
 |                    Distance to Nearest-Neighbour Shells                    |
 |                    ------------------------------------                    |
 |          Shell             Distance (Ang^-1)          Multiplicity         |
 |          -----             -----------------          ------------         |
 |             1                   0.180137                      6            |
 |             2                   0.254752                     12            |
 |             3                   0.312007                      8            |
 |             4                   0.360274                      6            |
 |             5                   0.402799                     24            |
 |             6                   0.441244                     24            |
 |             7                   0.509505                     12            |
 |             8                   0.540412                     30            |
 |             9                   0.569644                     24            |
 |            10                   0.597447                     24            |
 |            11                   0.624014                      8            |
 |            12                   0.649494                     24            |
 |            13                   0.674012                     48            |
 |            14                   0.720549                      6            |
 |            15                   0.742725                     48            |
 |            16                   0.764257                     36            |
 |            17                   0.785200                     24            |
 |            18                   0.805598                     24            |
 |            19                   0.825492                     48            |
 |            20                   0.844918                     24            |
 |            21                   0.882488                     24            |
 |            22                   0.900686                     30            |
 |            23                   0.918523                     72            |
 |            24                   0.936020                     32            |
 |            25                   0.970068                     72            |
 |            26                   0.986652                     48            |
 |            27                   1.019010                     12            |
 |            28                   1.034809                     48            |
 |            29                   1.050371                     48            |
 |            30                   1.065706                     48            |
 |            31                   1.080823                     30            |
 |            32                   1.095732                     24            |
 |            33                   1.110440                     72            |
 |            34                   1.139288                     24            |
 |            35                   1.153441                     96            |
 |            36                   1.167422                     48            |
 +----------------------------------------------------------------------------+
 | The b-vectors are chosen automatically                                     |
 | The following shells are used:   1                                         |
 +----------------------------------------------------------------------------+
 |                        Shell   # Nearest-Neighbours                        |
 |                        -----   --------------------                        |
 |                          1               6                                 |
 +----------------------------------------------------------------------------+
 | Completeness relation is fully satisfied [Eq. (B1), PRB 56, 12847 (1997)]  |
 +----------------------------------------------------------------------------+
 |                  b_k Vectors (Ang^-1) and Weights (Ang^2)                  |
 |                  ----------------------------------------                  |
 |            No.         b_k(x)      b_k(y)      b_k(z)        w_b           |
 |            ---        --------------------------------     --------        |
 |             1         0.000000    0.000000    0.180137    15.408602        |
 |             2         0.000000    0.180137    0.000000    15.408602        |
 |             3         0.180137    0.000000    0.000000    15.408602        |
 |             4         0.000000    0.000000   -0.180137    15.408602        |
 |             5         0.000000   -0.180137    0.000000    15.408602        |
 |             6        -0.180137    0.000000    0.000000    15.408602        |
 +----------------------------------------------------------------------------+
 |                           b_k Directions (Ang^-1)                          |
 |                           -----------------------                          |
 |            No.           x           y           z                         |
 |            ---        --------------------------------                     |
 |             1         0.000000    0.000000    0.180137                     |
 |             2         0.000000    0.180137    0.000000                     |
 |             3         0.180137    0.000000    0.000000                     |
 +----------------------------------------------------------------------------+
  
 Time to get kmesh              0.228 (sec)
 Reading restart information from file BPO.chk :
 Exiting.......
 Error opening BPO.chk in param_read_chkpt: did you run wannier90.x first?
 
             +---------------------------------------------------+
             |                                                   |
             |                   WANNIER90                       |
             |                                                   |
             +---------------------------------------------------+
             |                                                   |
             |        Welcome to the Maximally-Localized         |
             |        Generalized Wannier Functions code         |
             |            http://www.wannier.org                 |
             |                                                   |
             |                                                   |
             |  Wannier90 Developer Group:                       |
             |    Giovanni Pizzi    (EPFL)                       |
             |    Valerio Vitale    (Cambridge)                  |
             |    David Vanderbilt  (Rutgers University)         |
             |    Nicola Marzari    (EPFL)                       |
             |    Ivo Souza         (Universidad del Pais Vasco) |
             |    Arash A. Mostofi  (Imperial College London)    |
             |    Jonathan R. Yates (University of Oxford)       |
             |                                                   |
             |  For the full list of Wannier90 3.x authors,      |
             |  please check the code documentation and the      |
             |  README on the GitHub page of the code            |
             |                                                   |
             |                                                   |
             |  Please cite                                      |
             |                                                   |
             |  [ref] "Wannier90 as a community code:            |
             |        new features and applications",            |
             |        G. Pizzi et al., J. Phys. Cond. Matt. 32,  |
             |        165902 (2020).                             |
             |        http://doi.org/10.1088/1361-648X/ab51ff    |
             |                                                   |
             |  in any publications arising from the use of      |
             |  this code. For the method please cite            |
             |                                                   |
             |  [ref] "Maximally Localized Generalised Wannier   |
             |         Functions for Composite Energy Bands"     |
             |         N. Marzari and D. Vanderbilt              |
             |         Phys. Rev. B 56 12847 (1997)              |
             |                                                   |
             |  [ref] "Maximally Localized Wannier Functions     |
             |         for Entangled Energy Bands"               |
             |         I. Souza, N. Marzari and D. Vanderbilt    |
             |         Phys. Rev. B 65 035109 (2001)             |
             |                                                   |
             |                                                   |
             | Copyright (c) 1996-2020                           |
             |        The Wannier90 Developer Group and          |
             |        individual contributors                    |
             |                                                   |
             |      Release: 3.1.0        5th March    2020      |
             |                                                   |
             | This program is free software; you can            |
             | redistribute it and/or modify it under the terms  |
             | of the GNU General Public License as published by |
             | the Free Software Foundation; either version 2 of |
             | the License, or (at your option) any later version|
             |                                                   |
             | This program is distributed in the hope that it   |
             | will be useful, but WITHOUT ANY WARRANTY; without |
             | even the implied warranty of MERCHANTABILITY or   |
             | FITNESS FOR A PARTICULAR PURPOSE. See the GNU     |
             | General Public License for more details.          |
             |                                                   |
             | You should have received a copy of the GNU General|
             | Public License along with this program; if not,   |
             | write to the Free Software Foundation, Inc.,      |
             | 675 Mass Ave, Cambridge, MA 02139, USA.           |
             |                                                   |
             +---------------------------------------------------+
             |    Execution started on  1Oct2024 at 06:32:37     |
             +---------------------------------------------------+
 
 ******************************************************************************
 * -> Using CODATA 2006 constant values                                       *
 *    (http://physics.nist.gov/cuu/Constants/index.html)                      *
 * -> Using Bohr value from CODATA                                            *
 ******************************************************************************
 

 Running in parallel on  32 CPUs

 
                                    ------
                                    SYSTEM
                                    ------
 
                              Lattice Vectors (Ang)
                    a_1     4.360000   0.000000   0.000000
                    a_2     0.000000   4.360000   0.000000
                    a_3     0.000000   0.000000   4.360000
 
                   Unit Cell Volume:      82.88186  (Ang^3)
 
                        Reciprocal-Space Vectors (Ang^-1)
                    b_1     1.441098   0.000000   0.000000
                    b_2     0.000000   1.441098   0.000000
                    b_3     0.000000   0.000000   1.441098
  
 *----------------------------------------------------------------------------*
 |   Site       Fractional Coordinate          Cartesian Coordinate (Ang)     |
 +----------------------------------------------------------------------------+
 | Ba   1   0.50000   0.50000   0.50000   |    2.18000   2.18000   2.18000    |
 | Pb   1   0.00000   0.00000   0.00000   |    0.00000   0.00000   0.00000    |
 | O    1   0.50000   0.00000   0.00000   |    2.18000   0.00000   0.00000    |
 | O    2   0.00000   0.50000   0.00000   |    0.00000   2.18000   0.00000    |
 | O    3   0.00000   0.00000   0.50000   |    0.00000   0.00000   2.18000    |
 *----------------------------------------------------------------------------*
  
  
 *-------------------------------- POSTW90 -----------------------------------*
 |  Number of Wannier Functions               :                20             |
 |  Number of electrons per state             :                 1             |
 |  Scissor shift applied to conduction bands :             0.000             |
 |  Number of valence bands                   :       not defined             |
 |  Fermi energy (eV)                         :             8.566             |
 |  Output verbosity (1=low, 5=high)          :                 1             |
 |  Timing Level (1=low, 5=high)              :                 1             |
 |  Optimisation (0=memory, 3=speed)          :                 3             |
 |  Length Unit                               :               Ang             |
 *----------------------------------------------------------------------------*
 *------------------------ Global Smearing Parameters ------------------------*
 |  Adaptive width smearing                   :                 T             |
 |  Adaptive smearing factor                  :             1.414             |
 |  Maximum allowed smearing width (eV)       :             1.000             |
 |  Smearing Function                                             Gaussian    |
 |  Global interpolation k-points defined     :                 F             |
 *----------------------------------------------------------------------------*
 *----------------------------------------------------------------------------*
 *--------------------------------- KPATH ------------------------------------*
 |  Plot Properties along a path in k-space   :                 T             |
 |  Divisions along first kpath section       :               400             |
 |  Plot energy bands                         :                 T             |
 |  Plot Berry curvature                      :                 F             |
 |  Plot orbital magnetisation contribution   :                 F             |
 |  Plot spin Hall conductivity contribution  :                 T             |
 |  Property used to colour code the bands    :               shc             |
 *----------------------------------------------------------------------------*
 |   K-space path sections:                                                   |
 |    From:  G    0.000  0.000  0.000     To:  X    0.000  0.500  0.000       |
 |    From:  X    0.000  0.500  0.000     To:  M    0.500  0.500  0.000       |
 |    From:  M    0.500  0.500  0.000     To:  R    0.500  0.500  0.500       |
 |    From:  R    0.500  0.500  0.500     To:  G    0.000  0.000  0.000       |
 |    From:  G    0.000  0.000  0.000     To:  M    0.500  0.500  0.000       |
 *----------------------------------------------------------------------------*
 Time to read parameters        0.048 (sec)

 *---------------------------------- K-MESH ----------------------------------*
 +----------------------------------------------------------------------------+
 |                    Distance to Nearest-Neighbour Shells                    |
 |                    ------------------------------------                    |
 |          Shell             Distance (Ang^-1)          Multiplicity         |
 |          -----             -----------------          ------------         |
 |             1                   0.180137                      6            |
 |             2                   0.254752                     12            |
 |             3                   0.312007                      8            |
 |             4                   0.360274                      6            |
 |             5                   0.402799                     24            |
 |             6                   0.441244                     24            |
 |             7                   0.509505                     12            |
 |             8                   0.540412                     30            |
 |             9                   0.569644                     24            |
 |            10                   0.597447                     24            |
 |            11                   0.624014                      8            |
 |            12                   0.649494                     24            |
 |            13                   0.674012                     48            |
 |            14                   0.720549                      6            |
 |            15                   0.742725                     48            |
 |            16                   0.764257                     36            |
 |            17                   0.785200                     24            |
 |            18                   0.805598                     24            |
 |            19                   0.825492                     48            |
 |            20                   0.844918                     24            |
 |            21                   0.882488                     24            |
 |            22                   0.900686                     30            |
 |            23                   0.918523                     72            |
 |            24                   0.936020                     32            |
 |            25                   0.970068                     72            |
 |            26                   0.986652                     48            |
 |            27                   1.019010                     12            |
 |            28                   1.034809                     48            |
 |            29                   1.050371                     48            |
 |            30                   1.065706                     48            |
 |            31                   1.080823                     30            |
 |            32                   1.095732                     24            |
 |            33                   1.110440                     72            |
 |            34                   1.139288                     24            |
 |            35                   1.153441                     96            |
 |            36                   1.167422                     48            |
 +----------------------------------------------------------------------------+
 | The b-vectors are chosen automatically                                     |
[...]
 |             2         0.000000    0.090064    0.000000    61.640701        |
 |             3         0.090064    0.000000    0.000000    61.640701        |
 |             4         0.000000    0.000000   -0.090064    61.640701        |
 |             5         0.000000   -0.090064    0.000000    61.640701        |
 |             6        -0.090064    0.000000    0.000000    61.640701        |
 +----------------------------------------------------------------------------+
 |                           b_k Directions (Ang^-1)                          |
 |                           -----------------------                          |
 |            No.           x           y           z                         |
 |            ---        --------------------------------                     |
 |             1         0.000000    0.000000    0.090064                     |
 |             2         0.000000    0.090064    0.000000                     |
 |             3         0.090064    0.000000    0.000000                     |
 +----------------------------------------------------------------------------+
  
 Time to get kmesh              2.176 (sec)
 Reading restart information from file BPO.chk :
 written on 23Dec2024 at 19:55:17 ... done


 Time to read and process       1.081 (sec)


 Properties calculated in module  k s l i c e
 --------------------------------------------

   * Fermi lines

       (Fermi level:     8.5617 eV)

   * Berry curvature-like term of spin Hall conductivity in Ang^2

 Reading overlaps from BPO.mmn in get_AA_R   :  Created on 23Dec2024 at  8:45:30

 Reading spin matrices from BPO.spn in get_SS_R : Created on 23Dec2024 at 19:44:47

 Reading spin matrices from BPO.spn in get_SHC_R : Created on 23Dec2024 at 19:44:47

 Reading overlaps from BPO.mmn in get_SHC_R   :  Created on 23Dec2024 at  8:45:30


 Output files:

   BPO-kslice-coord.dat                                                                                                    

   BPO-kslice-bands.dat                                                                                                    

   BPO-kslice-shc.dat                                                                                                      

   BPO-kslice-shc+fermi_lines.py                                                                                           
  

 Total Execution Time         872.917 (sec)

 *===========================================================================*
 |                             TIMING INFORMATION                            |
 *===========================================================================*
 |    Tag                                                Ncalls      Time (s)|
 |---------------------------------------------------------------------------|
 |kmesh: get                                        :         1         2.176|
 *---------------------------------------------------------------------------*
 

 All done: postw90 exiting
 
             +---------------------------------------------------+
             |                                                   |
             |                   WANNIER90                       |
             |                                                   |
             +---------------------------------------------------+
             |                                                   |
             |        Welcome to the Maximally-Localized         |
             |        Generalized Wannier Functions code         |
             |            http://www.wannier.org                 |
             |                                                   |
             |                                                   |
             |  Wannier90 Developer Group:                       |
             |    Giovanni Pizzi    (EPFL)                       |
             |    Valerio Vitale    (Cambridge)                  |
             |    David Vanderbilt  (Rutgers University)         |
             |    Nicola Marzari    (EPFL)                       |
             |    Ivo Souza         (Universidad del Pais Vasco) |
             |    Arash A. Mostofi  (Imperial College London)    |
             |    Jonathan R. Yates (University of Oxford)       |
             |                                                   |
             |  For the full list of Wannier90 3.x authors,      |
             |  please check the code documentation and the      |
             |  README on the GitHub page of the code            |
             |                                                   |
             |                                                   |
             |  Please cite                                      |
             |                                                   |
             |  [ref] "Wannier90 as a community code:            |
             |        new features and applications",            |
             |        G. Pizzi et al., J. Phys. Cond. Matt. 32,  |
             |        165902 (2020).                             |
             |        http://doi.org/10.1088/1361-648X/ab51ff    |
             |                                                   |
             |  in any publications arising from the use of      |
             |  this code. For the method please cite            |
             |                                                   |
             |  [ref] "Maximally Localized Generalised Wannier   |
             |         Functions for Composite Energy Bands"     |
             |         N. Marzari and D. Vanderbilt              |
             |         Phys. Rev. B 56 12847 (1997)              |
             |                                                   |
             |  [ref] "Maximally Localized Wannier Functions     |
             |         for Entangled Energy Bands"               |
             |         I. Souza, N. Marzari and D. Vanderbilt    |
             |         Phys. Rev. B 65 035109 (2001)             |
             |                                                   |
             |                                                   |
             | Copyright (c) 1996-2020                           |
             |        The Wannier90 Developer Group and          |
             |        individual contributors                    |
             |                                                   |
             |      Release: 3.1.0        5th March    2020      |
             |                                                   |
             | This program is free software; you can            |
             | redistribute it and/or modify it under the terms  |
             | of the GNU General Public License as published by |
             | the Free Software Foundation; either version 2 of |
             | the License, or (at your option) any later version|
             |                                                   |
             | This program is distributed in the hope that it   |
             | will be useful, but WITHOUT ANY WARRANTY; without |
             | even the implied warranty of MERCHANTABILITY or   |
             | FITNESS FOR A PARTICULAR PURPOSE. See the GNU     |
             | General Public License for more details.          |
             |                                                   |
             | You should have received a copy of the GNU General|
             | Public License along with this program; if not,   |
             | write to the Free Software Foundation, Inc.,      |
             | 675 Mass Ave, Cambridge, MA 02139, USA.           |
             |                                                   |
             +---------------------------------------------------+
             |    Execution started on  5Jun2025 at 17:33:24     |
             +---------------------------------------------------+
 
 ******************************************************************************
 * -> Using CODATA 2006 constant values                                       *
 *    (http://physics.nist.gov/cuu/Constants/index.html)                      *
 * -> Using Bohr value from CODATA                                            *
 ******************************************************************************
 

 Running in parallel on  16 CPUs

 
                                    ------
                                    SYSTEM
                                    ------
 
                              Lattice Vectors (Ang)
                    a_1     4.360223   0.000000   0.000000
                    a_2     0.000000   4.360223   0.000000
                    a_3     0.000000   0.000000   4.360223
 
                   Unit Cell Volume:      82.89456  (Ang^3)
 
                        Reciprocal-Space Vectors (Ang^-1)
                    b_1     1.441024   0.000000   0.000000
                    b_2     0.000000   1.441024   0.000000
                    b_3     0.000000   0.000000   1.441024
  
 *----------------------------------------------------------------------------*
 |   Site       Fractional Coordinate          Cartesian Coordinate (Ang)     |
 +----------------------------------------------------------------------------+
 | Ba   1   0.50000   0.50000   0.50000   |    2.18011   2.18011   2.18011    |
 | Pb   1   0.00000   0.00000   0.00000   |    0.00000   0.00000   0.00000    |
 | O    1   0.50000   0.00000   0.00000   |    2.18011   0.00000   0.00000    |
 | O    2   0.00000   0.50000   0.00000   |    0.00000   2.18011   0.00000    |
 | O    3   0.00000   0.00000   0.50000   |    0.00000   0.00000   2.18011    |
 *----------------------------------------------------------------------------*
  
  
 *-------------------------------- POSTW90 -----------------------------------*
 |  Number of Wannier Functions               :                20             |
 |  Number of electrons per state             :                 1             |
 |  Scissor shift applied to conduction bands :             0.000             |
 |  Number of valence bands                   :       not defined             |
 |  Fermi energy (eV)                         :             8.562             |
 |  Output verbosity (1=low, 5=high)          :                 1             |
 |  Timing Level (1=low, 5=high)              :                 1             |
 |  Optimisation (0=memory, 3=speed)          :                 3             |
 |  Length Unit                               :               Ang             |
 *----------------------------------------------------------------------------*
 *------------------------ Global Smearing Parameters ------------------------*
 |  Adaptive width smearing                   :                 T             |
 |  Adaptive smearing factor                  :             1.414             |
 |  Maximum allowed smearing width (eV)       :             1.000             |
 |  Smearing Function                                             Gaussian    |
 |  Global interpolation k-points defined     :                 F             |
 *----------------------------------------------------------------------------*
 *----------------------------------------------------------------------------*
 *--------------------------------- KSLICE -----------------------------------*
 |  Plot Properties along a slice in k-space  :                 T             |
 |  Fermi level used for slice                :             8.562             |
 |  Divisions along first kpath section       :               401             |
 |  Plot energy contours (fermi lines)        :                 T             |
 |  Plot Berry curvature (sum over occ states):                 F             |
 |  Plot orbital magnetisation contribution   :                 F             |
 |  Plot spin Hall conductivity contribution  :                 T             |
 |  Property used to colour code the lines    :              none             |
 |  2D slice parameters (in reduced coordinates):                             |
 |     Corner:      0.000   0.000   0.000                                     |
 |    Vector1:      1.000   1.000   0.000            Divisions:    51         |
 |    Vector2:      0.000   0.000   0.900            Divisions:    51         |
 *----------------------------------------------------------------------------*
 Time to read parameters        0.433 (sec)

 *---------------------------------- K-MESH ----------------------------------*
 +----------------------------------------------------------------------------+
 |                    Distance to Nearest-Neighbour Shells                    |
 |                    ------------------------------------                    |
 |          Shell             Distance (Ang^-1)          Multiplicity         |
 |          -----             -----------------          ------------         |
 |             1                   0.090064                      6            |
 |             2                   0.127370                     12            |
 |             3                   0.155995                      8            |
 |             4                   0.180128                      6            |
 |             5                   0.201389                     24            |
 |             6                   0.220611                     24            |
 |             7                   0.254739                     12            |
 |             8                   0.270192                     30            |
 |             9                   0.284807                     24            |
 |            10                   0.298708                     24            |
 |            11                   0.311991                      8            |
 |            12                   0.324730                     24            |
 |            13                   0.336989                     48            |
 |            14                   0.360256                      6            |
 |            15                   0.371343                     48            |
 |            16                   0.382109                     36            |
 |            17                   0.392580                     24            |
 |            18                   0.402778                     24            |
 |            19                   0.412725                     48            |
 |            20                   0.422438                     24            |
 |            21                   0.441222                     24            |
 |            22                   0.450320                     30            |
 |            23                   0.459238                     72            |
 |            24                   0.467986                     32            |
 |            25                   0.485009                     72            |
 |            26                   0.493301                     48            |
 |            27                   0.509479                     12            |
 |            28                   0.517378                     48            |
 |            29                   0.525159                     48            |
 |            30                   0.532826                     48            |
 |            31                   0.540384                     30            |
 |            32                   0.547838                     24            |
 |            33                   0.555192                     72            |
 |            34                   0.569615                     24            |
 |            35                   0.576691                     96            |
 |            36                   0.583681                     48            |
 +----------------------------------------------------------------------------+
 | The b-vectors are chosen automatically                                     |
 | The following shells are used:   1                                         |
 +----------------------------------------------------------------------------+
 |                        Shell   # Nearest-Neighbours                        |
 |                        -----   --------------------                        |
 |                          1               6                                 |
 +----------------------------------------------------------------------------+
 | Completeness relation is fully satisfied [Eq. (B1), PRB 56, 12847 (1997)]  |
 +----------------------------------------------------------------------------+
 |                  b_k Vectors (Ang^-1) and Weights (Ang^2)                  |
 |                  ----------------------------------------                  |
 |            No.         b_k(x)      b_k(y)      b_k(z)        w_b           |
 |            ---        --------------------------------     --------        |
 |             1         0.000000    0.000000    0.090064    61.640701        |
 |             2         0.000000    0.090064    0.000000    61.640701        |
 |             3         0.090064    0.000000    0.000000    61.640701        |
 |             4         0.000000    0.000000   -0.090064    61.640701        |
 |             5         0.000000   -0.090064    0.000000    61.640701        |
 |             6        -0.090064    0.000000    0.000000    61.640701        |
 +----------------------------------------------------------------------------+
 |                           b_k Directions (Ang^-1)                          |
 |                           -----------------------                          |
 |            No.           x           y           z                         |
 |            ---        --------------------------------                     |
 |             1         0.000000    0.000000    0.090064                     |
 |             2         0.000000    0.090064    0.000000                     |
 |             3         0.090064    0.000000    0.000000                     |
 +----------------------------------------------------------------------------+
  
 Time to get kmesh              2.176 (sec)
 Reading restart information from file BPO.chk :
 written on 23Dec2024 at 19:55:17 ... done


 Time to read and process       1.076 (sec)


 Properties calculated in module  k s l i c e
 --------------------------------------------

   * Fermi lines

       (Fermi level:     8.5617 eV)

   * Berry curvature-like term of spin Hall conductivity in Ang^2

 Reading overlaps from BPO.mmn in get_AA_R   :  Created on 23Dec2024 at  8:45:30

 Reading spin matrices from BPO.spn in get_SS_R : Created on 23Dec2024 at 19:44:47

 Reading spin matrices from BPO.spn in get_SHC_R : Created on 23Dec2024 at 19:44:47

 Reading overlaps from BPO.mmn in get_SHC_R   :  Created on 23Dec2024 at  8:45:30


 Output files:

   BPO-kslice-coord.dat                                                                                                    

   BPO-kslice-bands.dat                                                                                                    

   BPO-kslice-shc.dat                                                                                                      

   BPO-kslice-shc+fermi_lines.py                                                                                           
  

 Total Execution Time         875.858 (sec)

 *===========================================================================*
 |                             TIMING INFORMATION                            |
 *===========================================================================*
 |    Tag                                                Ncalls      Time (s)|
 |---------------------------------------------------------------------------|
 |kmesh: get                                        :         1         2.176|
 *---------------------------------------------------------------------------*
 

 All done: postw90 exiting
