
     Program PWSCF v.7.3.1 starts on 23Jun2025 at  6:42:16 

     This program is part of the open-source Quantum ESPRESSO suite
     for quantum simulation of materials; please cite
         "P. Giannozzi et al., J. Phys.:Condens. Matter 21 395502 (2009);
         "P. Giannozzi et al., J. Phys.:Condens. Matter 29 465901 (2017);
         "P. Giannozzi et al., J. Chem. Phys. 152 154105 (2020);
          URL http://www.quantum-espresso.org", 
     in publications or presentations arising from this work. More details at
     http://www.quantum-espresso.org/quote

     Parallel version (MPI & OpenMP), running on      16 processor cores
     Number of MPI processes:                16
     Threads/MPI process:                     1

     MPI processes distributed on     2 nodes
     2751 MiB available memory on the printing compute node when the environment starts

     Reading input from BPBO.nscf.proj.in

     Current dimensions of program PWSCF are:
     Max number of different atomic species (ntypx) = 10
     Max number of k-points (npk) =  40000
     Max angular momentum in pseudopotentials (lmaxx) =  4
     file Ba.rel-pbe-spn-rrkjus_psl.1.0.0.UPF: wavefunction(s)  5S 6S renormalized
     file Pb.rel-pbe-dn-rrkjus_psl.1.0.0.UPF: wavefunction(s)  6S 5D 5D renormalized
     file Bi.rel-pbe-dn-rrkjus_psl.1.0.0.UPF: wavefunction(s)  5D 5D renormalized

     Atomic positions and unit cell read from directory:
     ./out/bpbo.save/

     Found identity + (  0.5000  0.5000  0.5000) symmetry
     This is a supercell, fractional translations are disabled
     Message from routine setup:
     using ibrav=0 with symmetry is DISCOURAGED, use correct ibrav instead

     R & G space division:  proc/nbgrp/npool/nimage =      16
     Subspace diagonalization in iterative solution of the eigenvalue problem:
     one sub-group per band group will be used
     scalapack distributed-memory algorithm (size of sub-group:  4*  4 procs)


     Parallelization info
     --------------------
     sticks:   dense  smooth     PW     G-vecs:    dense   smooth      PW
     Min         815     407    109                69992    24743    3465
     Max         816     409    110                69994    24745    3468
     Sum       13053    6525   1757              1119885   395903   55467

     Using Slab Decomposition



     bravais-lattice index     =            0
     lattice parameter (alat)  =      16.5225  a.u.
     unit-cell volume          =    4510.5659 (a.u.)^3
     number of atoms/cell      =           40
     number of atomic types    =            4
     number of electrons       =       338.00
     number of Kohn-Sham states=          432
     kinetic-energy cutoff     =      75.0000  Ry
     charge density cutoff     =     600.0000  Ry
     Exchange-correlation= PBE
                           (   1   4   3   4   0   0   0)
     Non magnetic calculation with spin-orbit


     celldm(1)=  16.486805  celldm(2)=   0.000000  celldm(3)=   0.000000
     celldm(4)=   0.000000  celldm(5)=   0.000000  celldm(6)=   0.000000

     crystal axes: (cart. coord. in units of alat)
               a(1) = (   1.000000   0.000000   0.000000 )  
               a(2) = (   0.000000   1.000000   0.000000 )  
               a(3) = (   0.000000   0.000000   1.000000 )  

     reciprocal axes: (cart. coord. in units 2 pi/alat)
               b(1) = (  1.000000  0.000000  0.000000 )  
               b(2) = (  0.000000  1.000000  0.000000 )  
               b(3) = (  0.000000  0.000000  1.000000 )  


     PseudoPot. # 1 for Ba read from file:
     ./pseudo/Ba.rel-pbe-spn-rrkjus_psl.1.0.0.UPF
     MD5 check sum: 94cfde5357c22a4bf03ae8062d9f9c82
     Pseudo is Ultrasoft + core correction, Zval = 10.0
     Generated using &quot;atomic&quot; code by A. Dal Corso  v.6.2.2
     Using radial grid of 1251 points, 11 beta functions with: 
                l(1) =   0
                l(2) =   0
                l(3) =   0
                l(4) =   1
                l(5) =   1
                l(6) =   1
                l(7) =   1
                l(8) =   2
                l(9) =   2
               l(10) =   2
               l(11) =   2
     Q(r) pseudized with 0 coefficients 


     PseudoPot. # 2 for O  read from file:
     ./pseudo/O.rel-pbe-n-rrkjus_psl.1.0.0.UPF
     MD5 check sum: 7bb44c19b4019dea92d8afd4a1c1ae3f
     Pseudo is Ultrasoft + core correction, Zval =  6.0
     Generated using &quot;atomic&quot; code by A. Dal Corso  v.6.3MaX
     Using radial grid of 1095 points,  6 beta functions with: 
                l(1) =   0
                l(2) =   0
                l(3) =   1
                l(4) =   1
                l(5) =   1
                l(6) =   1
     Q(r) pseudized with 0 coefficients 


     PseudoPot. # 3 for Pb read from file:
     ./pseudo/Pb.rel-pbe-dn-rrkjus_psl.1.0.0.UPF
     MD5 check sum: e88f3c92f89adaff2c2c587a7f90e9c0
     Pseudo is Ultrasoft + core correction, Zval = 14.0
     Generated using &quot;atomic&quot; code by A. Dal Corso  v.6.3
     Using radial grid of 1281 points, 10 beta functions with: 
                l(1) =   0
                l(2) =   0
                l(3) =   1
                l(4) =   1
                l(5) =   1
                l(6) =   1
                l(7) =   2
                l(8) =   2
                l(9) =   2
               l(10) =   2
     Q(r) pseudized with 0 coefficients 


     PseudoPot. # 4 for Bi read from file:
     ./pseudo/Bi.rel-pbe-dn-rrkjus_psl.1.0.0.UPF
     MD5 check sum: 0357e51b97995f252f8888940afc4c39
     Pseudo is Ultrasoft + core correction, Zval = 15.0
     Generated using &quot;atomic&quot; code by A. Dal Corso  v.6.2.2
     Using radial grid of 1283 points, 10 beta functions with: 
                l(1) =   0
                l(2) =   0
                l(3) =   1
                l(4) =   1
                l(5) =   1
                l(6) =   1
                l(7) =   2
                l(8) =   2
                l(9) =   2
               l(10) =   2
     Q(r) pseudized with 0 coefficients 


     atomic species   valence    mass     pseudopotential
     Ba               10.00   137.32700     Ba( 1.00)
     O                 6.00    15.99940     O ( 1.00)
     Pb               14.00   207.20000     Pb( 1.00)
     Bi               15.00   208.98040     Bi( 1.00)

     48 Sym. Ops., with inversion, found



   Cartesian axes

     site n.     atom                  positions (alat units)
         1        Ba     tau(   1) = (   0.2500000   0.2500000   0.2500000  )
         2        Ba     tau(   2) = (   0.2500000   0.2500000   0.7500000  )
         3        Ba     tau(   3) = (   0.2500000   0.7500000   0.2500000  )
         4        Ba     tau(   4) = (   0.2500000   0.7500000   0.7500000  )
         5        Ba     tau(   5) = (   0.7500000   0.2500000   0.2500000  )
         6        Ba     tau(   6) = (   0.7500000   0.2500000   0.7500000  )
         7        Ba     tau(   7) = (   0.7500000   0.7500000   0.2500000  )
         8        Ba     tau(   8) = (   0.7500000   0.7500000   0.7500000  )
         9        Bi     tau(   9) = (   0.0000000   0.0000000   0.0000000  )
        10        Bi     tau(  10) = (   0.5000000   0.5000000   0.5000000  )
        11        Pb     tau(  11) = (   0.0000000   0.0000000   0.5000000  )
        12        Pb     tau(  12) = (   0.0000000   0.5000000   0.0000000  )
        13        Pb     tau(  13) = (   0.0000000   0.5000000   0.5000000  )
        14        Pb     tau(  14) = (   0.5000000   0.0000000   0.0000000  )
        15        Pb     tau(  15) = (   0.5000000   0.0000000   0.5000000  )
        16        Pb     tau(  16) = (   0.5000000   0.5000000   0.0000000  )
        17        O      tau(  17) = (   0.0000000   0.2500000   0.0000000  )
        18        O      tau(  18) = (   0.0000000   0.2500000   0.5000000  )
        19        O      tau(  19) = (   0.0000000   0.7500000   0.0000000  )
        20        O      tau(  20) = (   0.0000000   0.7500000   0.5000000  )
        21        O      tau(  21) = (   0.5000000   0.2500000   0.0000000  )
        22        O      tau(  22) = (   0.5000000   0.2500000   0.5000000  )
        23        O      tau(  23) = (   0.5000000   0.7500000   0.0000000  )
        24        O      tau(  24) = (   0.5000000   0.7500000   0.5000000  )
        25        O      tau(  25) = (   0.0000000   0.0000000   0.2500000  )
        26        O      tau(  26) = (   0.0000000   0.0000000   0.7500000  )
        27        O      tau(  27) = (   0.0000000   0.5000000   0.2500000  )
        28        O      tau(  28) = (   0.0000000   0.5000000   0.7500000  )
        29        O      tau(  29) = (   0.5000000   0.0000000   0.2500000  )
        30        O      tau(  30) = (   0.5000000   0.0000000   0.7500000  )
        31        O      tau(  31) = (   0.5000000   0.5000000   0.2500000  )
        32        O      tau(  32) = (   0.5000000   0.5000000   0.7500000  )
        33        O      tau(  33) = (   0.2500000   0.0000000   0.0000000  )
        34        O      tau(  34) = (   0.2500000   0.0000000   0.5000000  )
        35        O      tau(  35) = (   0.2500000   0.5000000   0.0000000  )
        36        O      tau(  36) = (   0.2500000   0.5000000   0.5000000  )
        37        O      tau(  37) = (   0.7500000   0.0000000   0.0000000  )
        38        O      tau(  38) = (   0.7500000   0.0000000   0.5000000  )
        39        O      tau(  39) = (   0.7500000   0.5000000   0.0000000  )
        40        O      tau(  40) = (   0.7500000   0.5000000   0.5000000  )

     number of k points=    10 (tetrahedron method)
                       cart. coord. in units 2pi/alat
        k(    1) = (   0.0000000   0.0000000   0.0000000), wk =   0.0156250
        k(    2) = (   0.0000000   0.0000000   0.2500000), wk =   0.0937500
        k(    3) = (   0.0000000   0.0000000  -0.5000000), wk =   0.0468750
        k(    4) = (   0.0000000   0.2500000   0.2500000), wk =   0.1875000
        k(    5) = (   0.0000000   0.2500000  -0.5000000), wk =   0.1875000
        k(    6) = (   0.0000000  -0.5000000  -0.5000000), wk =   0.0468750
        k(    7) = (   0.2500000   0.2500000   0.2500000), wk =   0.1250000
        k(    8) = (   0.2500000   0.2500000  -0.5000000), wk =   0.1875000
        k(    9) = (   0.2500000  -0.5000000  -0.5000000), wk =   0.0937500
        k(   10) = (  -0.5000000  -0.5000000  -0.5000000), wk =   0.0156250

     Dense  grid:  1119885 G-vectors     FFT dimensions: ( 135, 135, 135)

     Smooth grid:   395903 G-vectors     FFT dimensions: (  96,  96,  96)

     Estimated max dynamical RAM per process >     873.51 MB

     Estimated total dynamical RAM >      13.65 GB

     The potential is recalculated from file :
     ./out/bpbo.save/charge-density

     Starting wfcs are  416 randomized atomic wfcs +   16 random wfcs

     Band Structure Calculation
     Davidson diagonalization with overlap
     c_bands: 18 eigenvalues not converged
     c_bands: 14 eigenvalues not converged
     c_bands: 20 eigenvalues not converged
     c_bands: 13 eigenvalues not converged
     c_bands: 25 eigenvalues not converged
     c_bands: 19 eigenvalues not converged
     c_bands:  8 eigenvalues not converged
     c_bands: 28 eigenvalues not converged
     c_bands: 16 eigenvalues not converged
     c_bands:  7 eigenvalues not converged

     ethr =  1.00E-13,  avg # of iterations =120.0

     total cpu time spent up to now is    11328.7 secs

     End of band structure calculation

          k = 0.0000 0.0000 0.0000 ( 49509 PWs)   bands (ev):

   -16.9204 -16.9204 -16.8906 -16.8906 -16.8906 -16.8906 -16.8906 -16.8906
   -16.8677 -16.8677 -16.8677 -16.8677 -16.8675 -16.8675 -16.8473 -16.8473
   -14.6706 -14.6706 -14.6706 -14.6706 -14.6699 -14.6699 -14.6699 -14.6699
   -11.8589 -11.8589 -11.8589 -11.8589 -11.8577 -11.8577 -11.8577 -11.8577
   -11.6087 -11.6087 -11.6071 -11.6071  -9.1025  -9.1025  -9.0467  -9.0467
    -8.9232  -8.9232  -8.8950  -8.8950  -8.8950  -8.8950  -8.8435  -8.8435
    -8.8435  -8.8435  -8.5767  -8.5767  -8.3938  -8.3938  -8.3938  -8.3938
    -8.3226  -8.3226  -8.3226  -8.3226  -7.9396  -7.9396  -7.7751  -7.7751
    -7.7249  -7.7249  -7.7249  -7.7249  -7.7141  -7.7141  -7.6479  -7.6479
    -7.6479  -7.6479  -7.6264  -7.6264  -7.6099  -7.6099  -7.6099  -7.6099
    -7.4403  -7.4403  -7.4403  -7.4403  -7.4054  -7.4054  -7.3826  -7.3826
    -7.3357  -7.3357  -7.3357  -7.3357  -7.1932  -7.1932  -7.1562  -7.1562
    -7.1562  -7.1562  -6.8463  -6.8463  -6.8413  -6.8413  -6.8413  -6.8413
    -6.8408  -6.8408  -6.8408  -6.8408  -5.5179  -5.5179  -5.4217  -5.4217
    -5.4217  -5.4217  -5.3507  -5.3507  -5.3488  -5.3488  -5.2949  -5.2949
    -5.2949  -5.2949  -5.2759  -5.2759  -5.2759  -5.2759  -5.2570  -5.2570
    -5.1359  -5.1359  -5.1359  -5.1359  -4.9288  -4.9288  -4.3011  -4.3011
    -4.3011  -4.3011  -4.0564  -4.0564  -4.0564  -4.0564  -3.7815  -3.7815
    -3.6015  -3.6015  -3.4720  -3.4720  -3.4443  -3.4443  -3.4443  -3.4443
    -3.4382  -3.4382  -3.3797  -3.3797  -3.3770  -3.3770  -3.3770  -3.3770
    -1.7008  -1.7008  -1.7008  -1.7008  -1.5366  -1.5366  -1.5160  -1.5160
    -1.5160  -1.5160  -1.4562  -1.4562  -1.4562  -1.4562  -1.3775  -1.3775
    -1.3573  -1.3573  -1.3573  -1.3573  -1.3560  -1.3560  -1.3542  -1.3542
    -1.3350  -1.3350  -1.3350  -1.3350  -1.3176  -1.3176  -1.3176  -1.3176
    -1.0316  -1.0316   0.0653   0.0653   1.5555   1.5555   1.5555   1.5555
     2.2411   2.2411   3.3949   3.3949   3.3949   3.3949   3.7638   3.7638
     3.7908   3.7908   4.2305   4.2305   4.2305   4.2305   4.5115   4.5115
     4.5115   4.5115   4.7050   4.7050   4.7050   4.7050   4.8244   4.8244
     4.9661   4.9661   5.0432   5.0432   5.0432   5.0432   5.8662   5.8662
     6.3087   6.3087   6.3087   6.3087   6.3161   6.3161   6.6233   6.6233
     6.6233   6.6233   6.6373   6.6373   7.0764   7.0764   7.2149   7.2149
     7.2149   7.2149   7.2351   7.2351   7.2351   7.2351   7.2386   7.2386
     7.3631   7.3631   7.3631   7.3631   7.3646   7.3646   7.3917   7.3917
     7.4149   7.4149   7.4149   7.4149   7.4491   7.4491   7.4537   7.4537
     7.4537   7.4537   7.4653   7.4653   7.4755   7.4755   7.4755   7.4755
     7.5982   7.5982   7.6264   7.6264   7.6264   7.6264   7.6935   7.6935
     7.6935   7.6935   7.7174   7.7174   7.7890   7.7890   7.7916   7.7916
     7.7916   7.7916   7.8231   7.8231   7.8231   7.8231   7.8357   7.8357
     7.8597   7.8597   7.8693   7.8693   7.8693   7.8693   7.9950   7.9950
     8.1073   8.1073   8.1073   8.1073   8.1731   8.1731   8.1731   8.1731
     8.3273   8.3273   8.3273   8.3273   8.5433   8.5433   8.5433   8.5433
     8.5464   8.5464   8.5911   8.5911   8.6102   8.6102   8.6102   8.6102
     8.6214   8.6214  10.5908  10.5908  11.4330  11.4330  11.4330  11.4330
    12.2083  12.2083  12.2213  12.2213  13.2315  13.2315  13.2315  13.2315
    13.2886  13.2886  13.2886  13.2886  13.2950  13.2950  13.2950  13.2950
    13.8105  13.8105  14.4714  14.4714  14.6394  14.6394  14.6570  14.6570
    14.6882  14.6882  14.6882  14.6882  14.7041  14.7041  14.7067  14.7067
    14.7067  14.7067  14.9980  14.9980  14.9980  14.9980  15.1330  15.1330
    15.2904  15.2904  15.2904  15.2904  15.3505  15.3505  15.3505  15.3505
    15.4764  15.4764  15.5007  15.5007  15.5021  15.5021  15.5021  15.5021
    15.5728  15.5728  15.6574  15.6574  15.6659  15.6659  15.6659  15.6659
    15.9954  15.9954  15.9954  15.9954  16.1958  16.1958  16.1958  16.1958
    16.3059  16.3059  16.3059  16.3059  16.4096  16.4096  16.4511  16.4512
    16.4672  16.4672  16.4672  16.4672  16.5344  16.5345  16.5351  16.5362

          k = 0.0000 0.0000 0.2500 ( 49466 PWs)   bands (ev):

   -16.9161 -16.9161 -16.8950 -16.8950 -16.8873 -16.8873 -16.8872 -16.8872
   -16.8711 -16.8711 -16.8710 -16.8710 -16.8647 -16.8647 -16.8503 -16.8503
   -14.6705 -14.6705 -14.6704 -14.6704 -14.6700 -14.6700 -14.6699 -14.6699
   -11.8588 -11.8588 -11.8579 -11.8579 -11.8570 -11.8570 -11.8561 -11.8561
   -11.6085 -11.6085 -11.6073 -11.6073  -9.0571  -9.0571  -9.0170  -9.0170
    -8.9081  -8.9081  -8.8960  -8.8960  -8.8498  -8.8498  -8.8459  -8.8459
    -8.7715  -8.7715  -8.5558  -8.5558  -8.4939  -8.4939  -8.4456  -8.4456
    -8.4197  -8.4197  -8.3131  -8.3131  -8.0777  -8.0777  -7.9787  -7.9787
    -7.7542  -7.7542  -7.7135  -7.7135  -7.7066  -7.7066  -7.7060  -7.7060
    -7.6626  -7.6626  -7.6592  -7.6592  -7.6039  -7.6039  -7.5259  -7.5259
    -7.4460  -7.4460  -7.4310  -7.4310  -7.4050  -7.4050  -7.3702  -7.3702
    -7.3478  -7.3478  -7.1922  -7.1922  -7.1513  -7.1513  -7.0850  -7.0850
    -7.0252  -7.0252  -6.8680  -6.8680  -6.8594  -6.8594  -6.8591  -6.8591
    -6.8422  -6.8422  -6.8415  -6.8415  -5.4695  -5.4695  -5.4229  -5.4229
    -5.3461  -5.3461  -5.3398  -5.3398  -5.3014  -5.3014  -5.2922  -5.2922
    -5.2790  -5.2790  -5.2738  -5.2738  -5.2607  -5.2607  -5.2102  -5.2102
    -5.1721  -5.1721  -4.9945  -4.9945  -4.8750  -4.8750  -4.3682  -4.3682
    -4.3680  -4.3680  -4.2158  -4.2158  -4.0451  -4.0451  -3.8694  -3.8694
    -3.5787  -3.5787  -3.4663  -3.4663  -3.4529  -3.4529  -3.4349  -3.4349
    -3.4307  -3.4307  -3.3899  -3.3899  -3.3880  -3.3880  -3.3862  -3.3862
    -1.6751  -1.6751  -1.6551  -1.6551  -1.5513  -1.5513  -1.5014  -1.5014
    -1.4905  -1.4905  -1.4400  -1.4400  -1.4330  -1.4330  -1.4172  -1.4172
    -1.3750  -1.3750  -1.3717  -1.3717  -1.3656  -1.3656  -1.3538  -1.3538
    -1.3501  -1.3501  -1.3450  -1.3450  -1.3431  -1.3431  -1.3270  -1.3270
    -0.8865  -0.8865  -0.0600  -0.0600   1.3470   1.3470   1.6830   1.6830
     1.8708   1.8708   2.7786   2.7786   3.2606   3.2606   3.7021   3.7021
     3.9590   3.9590   4.2960   4.2960   4.3267   4.3267   4.4866   4.4866
     4.5724   4.5724   4.8357   4.8357   4.8693   4.8693   5.0094   5.0094
     5.1070   5.1070   5.4013   5.4013   5.5690   5.5690   6.3621   6.3621
     6.3623   6.3623   6.4265   6.4265   6.4388   6.4388   6.6009   6.6009
     6.6089   6.6089   6.6751   6.6751   7.0166   7.0166   7.1460   7.1460
     7.1754   7.1754   7.1826   7.1826   7.2383   7.2383   7.2476   7.2476
     7.2507   7.2507   7.2763   7.2763   7.3036   7.3036   7.3059   7.3059
     7.3981   7.3981   7.4027   7.4027   7.4267   7.4267   7.4336   7.4336
     7.4375   7.4375   7.4741   7.4741   7.5944   7.5944   7.6036   7.6036
     7.6607   7.6607   7.6697   7.6697   7.6752   7.6752   7.6875   7.6875
     7.6906   7.6906   7.7204   7.7204   7.7500   7.7500   7.7608   7.7608
     7.7701   7.7701   7.8067   7.8067   7.8207   7.8207   7.8229   7.8229
     7.8623   7.8623   7.9052   7.9052   7.9620   7.9620   7.9638   7.9638
     7.9963   7.9963   8.0404   8.0404   8.0802   8.0802   8.1312   8.1312
     8.2610   8.2610   8.3320   8.3320   8.4401   8.4401   8.4530   8.4530
     8.4539   8.4539   8.4654   8.4654   8.5002   8.5002   8.5526   8.5526
     8.5948   8.5948  10.2719  10.2719  11.1632  11.1632  11.5531  11.5531
    11.8363  11.8363  12.4602  12.4602  12.6949  12.6949  13.0373  13.0373
    13.3852  13.3852  13.4879  13.4879  13.5002  13.5002  13.5652  13.5652
    13.9462  13.9462  14.4453  14.4453  14.4857  14.4857  14.5669  14.5669
    14.7597  14.7597  14.7828  14.7828  14.8656  14.8656  14.8664  14.8664
    14.8971  14.8971  14.9294  14.9294  15.0023  15.0023  15.0930  15.0930
    15.2714  15.2714  15.3132  15.3132  15.3505  15.3505  15.4101  15.4101
    15.4406  15.4406  15.5042  15.5042  15.5816  15.5816  15.6081  15.6081
    15.6333  15.6333  15.6394  15.6394  15.6831  15.6831  15.7466  15.7466
    15.7946  15.7946  16.0486  16.0486  16.0617  16.0617  16.2069  16.2069
    16.2299  16.2299  16.2908  16.2908  16.3426  16.3426  16.3462  16.3462
    16.4019  16.4019  16.4558  16.4558  16.4693  16.4693  16.5245  16.5245

          k = 0.0000 0.0000-0.5000 ( 49454 PWs)   bands (ev):

   -16.9056 -16.9056 -16.9056 -16.9056 -16.8792 -16.8792 -16.8792 -16.8792
   -16.8791 -16.8791 -16.8791 -16.8791 -16.8575 -16.8575 -16.8575 -16.8575
   -14.6703 -14.6703 -14.6703 -14.6703 -14.6700 -14.6700 -14.6700 -14.6700
   -11.8583 -11.8583 -11.8583 -11.8583 -11.8548 -11.8548 -11.8548 -11.8548
   -11.6079 -11.6079 -11.6079 -11.6079  -8.9807  -8.9807  -8.9807  -8.9807
    -8.8994  -8.8994  -8.8994  -8.8994  -8.8394  -8.8394  -8.8394  -8.8394
    -8.5940  -8.5940  -8.5940  -8.5940  -8.5647  -8.5647  -8.5647  -8.5647
    -8.3378  -8.3378  -8.3378  -8.3378  -8.2636  -8.2636  -8.2636  -8.2636
    -7.7259  -7.7259  -7.7259  -7.7259  -7.6864  -7.6864  -7.6864  -7.6864
    -7.6851  -7.6851  -7.6851  -7.6851  -7.5830  -7.5830  -7.5830  -7.5830
    -7.4088  -7.4088  -7.4088  -7.4088  -7.3768  -7.3768  -7.3768  -7.3768
    -7.2694  -7.2694  -7.2694  -7.2694  -6.9670  -6.9670  -6.9670  -6.9670
    -6.9332  -6.9332  -6.9332  -6.9332  -6.9100  -6.9100  -6.9100  -6.9100
    -6.8419  -6.8419  -6.8419  -6.8419  -5.4319  -5.4319  -5.4319  -5.4319
    -5.3194  -5.3194  -5.3194  -5.3194  -5.2856  -5.2856  -5.2856  -5.2856
    -5.2680  -5.2680  -5.2680  -5.2680  -5.2592  -5.2592  -5.2592  -5.2592
    -4.8738  -4.8738  -4.8738  -4.8738  -4.6358  -4.6358  -4.6358  -4.6358
    -4.4566  -4.4566  -4.4566  -4.4566  -3.9954  -3.9954  -3.9954  -3.9954
    -3.5229  -3.5229  -3.5229  -3.5229  -3.4180  -3.4180  -3.4180  -3.4180
    -3.4122  -3.4122  -3.4122  -3.4122  -3.4084  -3.4084  -3.4084  -3.4084
    -1.6128  -1.6128  -1.6128  -1.6128  -1.5408  -1.5408  -1.5408  -1.5408
    -1.4389  -1.4389  -1.4389  -1.4389  -1.4266  -1.4266  -1.4266  -1.4266
    -1.3945  -1.3945  -1.3945  -1.3945  -1.3858  -1.3858  -1.3858  -1.3858
    -1.3580  -1.3580  -1.3580  -1.3580  -1.3431  -1.3431  -1.3431  -1.3431
    -0.4808  -0.4808  -0.4808  -0.4808   1.3893   1.3893   1.3893   1.3893
     2.0859   2.0859   2.0859   2.0859   3.4367   3.4367   3.4367   3.4367
     4.0541   4.0541   4.0541   4.0541   4.4161   4.4161   4.4161   4.4161
     4.7169   4.7169   4.7169   4.7169   4.9391   4.9391   4.9391   4.9391
     6.2668   6.2668   6.2668   6.2668   6.4589   6.4589   6.4589   6.4589
     6.5130   6.5130   6.5130   6.5130   6.5671   6.5671   6.5671   6.5671
     6.6837   6.6837   6.6837   6.6837   6.7422   6.7422   6.7422   6.7422
     6.8311   6.8311   6.8311   6.8311   7.1638   7.1638   7.1638   7.1638
     7.2245   7.2245   7.2245   7.2245   7.2932   7.2932   7.2932   7.2932
     7.2957   7.2957   7.2957   7.2957   7.4921   7.4921   7.4921   7.4921
     7.5233   7.5233   7.5233   7.5233   7.5267   7.5267   7.5267   7.5267
     7.5875   7.5875   7.5875   7.5875   7.6129   7.6129   7.6129   7.6129
     7.6983   7.6983   7.6983   7.6983   7.7164   7.7164   7.7164   7.7164
     7.8326   7.8326   7.8326   7.8326   7.8979   7.8979   7.8979   7.8979
     7.9517   7.9517   7.9517   7.9517   7.9651   7.9651   7.9651   7.9651
     8.0776   8.0776   8.0776   8.0776   8.1135   8.1135   8.1135   8.1135
     8.2405   8.2405   8.2405   8.2405   8.2476   8.2476   8.2476   8.2476
     8.3638   8.3638   8.3638   8.3638   8.5730   8.5730   8.5730   8.5730
     9.1372   9.1372   9.1372   9.1372  11.3012  11.3012  11.3012  11.3012
    11.9618  11.9618  11.9618  11.9618  12.8665  12.8665  12.8665  12.8665
    13.6155  13.6155  13.6155  13.6155  13.9773  13.9773  13.9773  13.9773
    14.0247  14.0247  14.0247  14.0247  14.2584  14.2584  14.2584  14.2584
    14.6791  14.6791  14.6791  14.6791  14.9260  14.9260  14.9260  14.9260
    15.0005  15.0005  15.0005  15.0005  15.2123  15.2123  15.2123  15.2123
    15.3944  15.3944  15.3944  15.3944  15.5002  15.5002  15.5002  15.5002
    15.5149  15.5149  15.5149  15.5149  15.6330  15.6330  15.6330  15.6330
    15.7248  15.7248  15.7248  15.7248  15.8190  15.8190  15.8190  15.8190
    15.9243  15.9243  15.9243  15.9243  16.0438  16.0438  16.0438  16.0438
    16.0873  16.0873  16.0873  16.0873  16.1137  16.1137  16.1137  16.1137
    16.1165  16.1165  16.1165  16.1165  16.3535  16.3535  16.3535  16.3535

          k = 0.0000 0.2500 0.2500 ( 49490 PWs)   bands (ev):

   -16.9119 -16.9119 -16.8916 -16.8916 -16.8914 -16.8914 -16.8840 -16.8840
   -16.8746 -16.8746 -16.8681 -16.8681 -16.8679 -16.8679 -16.8534 -16.8534
   -14.6704 -14.6704 -14.6702 -14.6702 -14.6701 -14.6701 -14.6698 -14.6698
   -11.8578 -11.8578 -11.8571 -11.8571 -11.8559 -11.8559 -11.8553 -11.8553
   -11.6083 -11.6083 -11.6075 -11.6075  -9.0114  -9.0114  -8.9840  -8.9840
    -8.8891  -8.8891  -8.8756  -8.8756  -8.8146  -8.8146  -8.7982  -8.7982
    -8.7612  -8.7612  -8.5417  -8.5417  -8.5388  -8.5388  -8.4696  -8.4696
    -8.4680  -8.4680  -8.3907  -8.3907  -8.1665  -8.1665  -8.0251  -8.0251
    -7.9551  -7.9551  -7.9032  -7.9032  -7.7259  -7.7259  -7.7009  -7.7009
    -7.6788  -7.6788  -7.6575  -7.6575  -7.5731  -7.5731  -7.5254  -7.5254
    -7.4101  -7.4101  -7.3901  -7.3901  -7.3576  -7.3576  -7.3221  -7.3221
    -7.1777  -7.1777  -7.1293  -7.1293  -7.1032  -7.1032  -7.0563  -7.0563
    -6.9986  -6.9986  -6.8825  -6.8825  -6.8762  -6.8762  -6.8604  -6.8604
    -6.8577  -6.8577  -6.8537  -6.8537  -5.4089  -5.4089  -5.3833  -5.3833
    -5.3322  -5.3322  -5.3017  -5.3017  -5.2937  -5.2937  -5.2802  -5.2802
    -5.2746  -5.2746  -5.2641  -5.2641  -5.2042  -5.2042  -5.1796  -5.1796
    -5.0951  -5.0951  -4.9806  -4.9806  -4.8309  -4.8309  -4.4276  -4.4276
    -4.4237  -4.4237  -4.2854  -4.2854  -4.1207  -4.1207  -3.9650  -3.9650
    -3.5581  -3.5581  -3.4579  -3.4579  -3.4523  -3.4523  -3.4391  -3.4391
    -3.4258  -3.4258  -3.4001  -3.4001  -3.3959  -3.3959  -3.3935  -3.3935
    -1.6504  -1.6504  -1.6142  -1.6142  -1.5341  -1.5341  -1.5149  -1.5149
    -1.4760  -1.4760  -1.4385  -1.4385  -1.4160  -1.4160  -1.4088  -1.4088
    -1.4025  -1.4025  -1.3933  -1.3933  -1.3847  -1.3847  -1.3696  -1.3696
    -1.3637  -1.3637  -1.3553  -1.3553  -1.3446  -1.3446  -1.3292  -1.3292
    -0.7572  -0.7572  -0.1201  -0.1201   1.2323   1.2323   1.6080   1.6080
     1.6519   1.6519   2.5661   2.5661   2.8069   2.8069   3.3723   3.3723
     4.1297   4.1297   4.2282   4.2282   4.6739   4.6739   4.7673   4.7673
     4.7745   4.7745   4.9675   4.9675   5.1517   5.1517   5.2942   5.2942
     5.4487   5.4487   5.5100   5.5100   5.7569   5.7569   6.4072   6.4072
     6.4413   6.4413   6.4998   6.4998   6.5639   6.5639   6.6021   6.6021
     6.6345   6.6345   6.6419   6.6419   6.9608   6.9608   7.0744   7.0744
     7.0957   7.0957   7.1495   7.1495   7.1614   7.1614   7.2201   7.2201
     7.2281   7.2281   7.2362   7.2362   7.2508   7.2508   7.2850   7.2850
     7.2924   7.2924   7.3063   7.3063   7.4397   7.4397   7.5294   7.5294
     7.5506   7.5506   7.5862   7.5862   7.5905   7.5905   7.5965   7.5965
     7.6045   7.6045   7.6072   7.6072   7.6468   7.6468   7.6552   7.6552
     7.6879   7.6879   7.7105   7.7105   7.7223   7.7223   7.7852   7.7852
     7.7983   7.7983   7.8095   7.8095   7.8116   7.8116   7.8203   7.8203
     7.8309   7.8309   7.9737   7.9737   8.0009   8.0009   8.0049   8.0049
     8.0063   8.0063   8.0123   8.0123   8.0889   8.0889   8.0974   8.0974
     8.1315   8.1315   8.3432   8.3432   8.3745   8.3745   8.4123   8.4123
     8.4189   8.4189   8.4446   8.4446   8.4603   8.4603   8.4797   8.4797
     8.5340   8.5340  10.1837  10.1837  10.8500  10.8500  11.4822  11.4822
    11.4825  11.4825  12.4189  12.4189  12.5005  12.5005  12.6226  12.6226
    13.4530  13.4530  13.6553  13.6553  13.7114  13.7114  13.8447  13.8447
    14.1285  14.1285  14.5475  14.5475  14.5761  14.5761  14.5831  14.5831
    14.7518  14.7518  14.7728  14.7728  14.8216  14.8216  14.8366  14.8366
    14.9102  14.9102  14.9485  14.9485  15.0278  15.0278  15.1196  15.1196
    15.1962  15.1962  15.3639  15.3639  15.4898  15.4898  15.5169  15.5169
    15.5468  15.5468  15.5755  15.5755  15.5950  15.5950  15.6184  15.6184
    15.6549  15.6549  15.6910  15.6910  15.7538  15.7538  15.7560  15.7560
    15.8377  15.8377  15.9098  15.9098  15.9457  15.9457  15.9688  15.9688
    16.1135  16.1135  16.2026  16.2026  16.2488  16.2488  16.2814  16.2814
    16.3403  16.3403  16.4065  16.4065  16.4317  16.4317  16.5619  16.5620

          k = 0.0000 0.2500-0.5000 ( 49470 PWs)   bands (ev):

   -16.9017 -16.9017 -16.9017 -16.9017 -16.8830 -16.8830 -16.8830 -16.8830
   -16.8760 -16.8760 -16.8760 -16.8760 -16.8607 -16.8607 -16.8607 -16.8607
   -14.6702 -14.6702 -14.6702 -14.6702 -14.6699 -14.6699 -14.6699 -14.6699
   -11.8572 -11.8572 -11.8572 -11.8572 -11.8541 -11.8541 -11.8541 -11.8541
   -11.6079 -11.6079 -11.6079 -11.6079  -8.9368  -8.9368  -8.9368  -8.9368
    -8.8776  -8.8776  -8.8776  -8.8776  -8.7871  -8.7871  -8.7871  -8.7871
    -8.5998  -8.5998  -8.5998  -8.5998  -8.5927  -8.5927  -8.5927  -8.5927
    -8.3700  -8.3700  -8.3700  -8.3700  -8.3197  -8.3197  -8.3197  -8.3197
    -7.9833  -7.9833  -7.9833  -7.9833  -7.7165  -7.7165  -7.7165  -7.7165
    -7.7004  -7.7004  -7.7004  -7.7004  -7.5326  -7.5326  -7.5326  -7.5326
    -7.3919  -7.3919  -7.3919  -7.3919  -7.2610  -7.2610  -7.2610  -7.2610
    -7.1272  -7.1272  -7.1272  -7.1272  -6.9720  -6.9720  -6.9720  -6.9720
    -6.9470  -6.9470  -6.9470  -6.9470  -6.9115  -6.9115  -6.9115  -6.9115
    -6.8586  -6.8586  -6.8586  -6.8586  -5.3751  -5.3751  -5.3751  -5.3751
    -5.3149  -5.3149  -5.3149  -5.3149  -5.2874  -5.2874  -5.2874  -5.2874
    -5.2706  -5.2706  -5.2706  -5.2706  -5.1307  -5.1307  -5.1307  -5.1307
    -4.8444  -4.8444  -4.8444  -4.8444  -4.6737  -4.6737  -4.6737  -4.6737
    -4.5034  -4.5034  -4.5034  -4.5034  -4.0998  -4.0998  -4.0998  -4.0998
    -3.5074  -3.5074  -3.5074  -3.5074  -3.4278  -3.4278  -3.4278  -3.4278
    -3.4150  -3.4150  -3.4150  -3.4150  -3.4094  -3.4094  -3.4094  -3.4094
    -1.5886  -1.5886  -1.5886  -1.5886  -1.5146  -1.5146  -1.5146  -1.5146
    -1.4611  -1.4611  -1.4611  -1.4611  -1.4301  -1.4301  -1.4301  -1.4301
    -1.4115  -1.4115  -1.4115  -1.4115  -1.3853  -1.3853  -1.3853  -1.3853
    -1.3635  -1.3635  -1.3635  -1.3635  -1.3438  -1.3438  -1.3438  -1.3438
    -0.4140  -0.4140  -0.4140  -0.4140   1.2071   1.2071   1.2071   1.2071
     1.9937   1.9937   1.9937   1.9937   2.9197   2.9197   2.9197   2.9197
     4.1872   4.1872   4.1872   4.1872   4.7524   4.7524   4.7524   4.7524
     5.0008   5.0008   5.0008   5.0008   5.4163   5.4163   5.4163   5.4163
     6.2683   6.2683   6.2683   6.2683   6.4598   6.4598   6.4598   6.4598
     6.5142   6.5142   6.5142   6.5142   6.5546   6.5546   6.5546   6.5546
     6.6942   6.6942   6.6942   6.6942   6.7246   6.7246   6.7246   6.7246
     6.7671   6.7671   6.7671   6.7671   7.1219   7.1219   7.1219   7.1219
     7.1615   7.1615   7.1615   7.1615   7.2302   7.2302   7.2302   7.2302
     7.2509   7.2509   7.2509   7.2509   7.4055   7.4055   7.4055   7.4055
     7.5232   7.5232   7.5232   7.5232   7.5474   7.5474   7.5474   7.5474
     7.6509   7.6509   7.6509   7.6509   7.6733   7.6733   7.6733   7.6733
     7.7336   7.7336   7.7336   7.7336   7.7721   7.7721   7.7721   7.7721
     7.8344   7.8344   7.8344   7.8344   7.8771   7.8771   7.8771   7.8771
     7.8981   7.8981   7.8981   7.8981   7.9902   7.9902   7.9902   7.9902
     8.0711   8.0711   8.0711   8.0711   8.0996   8.0996   8.0996   8.0996
     8.2428   8.2428   8.2428   8.2428   8.2744   8.2744   8.2744   8.2744
     8.2796   8.2796   8.2796   8.2796   8.4905   8.4905   8.4905   8.4905
     9.2649   9.2649   9.2649   9.2649  10.8983  10.8983  10.8983  10.8983
    11.8029  11.8029  11.8029  11.8029  12.5128  12.5128  12.5128  12.5128
    13.8261  13.8261  13.8261  13.8261  14.0860  14.0860  14.0860  14.0860
    14.2420  14.2420  14.2420  14.2420  14.4360  14.4360  14.4360  14.4360
    14.7649  14.7649  14.7649  14.7649  14.8382  14.8382  14.8382  14.8382
    14.9360  14.9360  14.9360  14.9360  15.2568  15.2568  15.2568  15.2568
    15.3512  15.3512  15.3512  15.3512  15.3882  15.3882  15.3882  15.3882
    15.5802  15.5802  15.5802  15.5802  15.6313  15.6313  15.6313  15.6313
    15.6599  15.6599  15.6599  15.6599  15.8723  15.8723  15.8723  15.8723
    15.9750  15.9750  15.9750  15.9750  16.0017  16.0017  16.0017  16.0017
    16.0487  16.0487  16.0487  16.0487  16.1289  16.1289  16.1289  16.1289
    16.1589  16.1589  16.1589  16.1589  16.3259  16.3259  16.3259  16.3260

          k = 0.0000-0.5000-0.5000 ( 49600 PWs)   bands (ev):

   -16.8926 -16.8926 -16.8926 -16.8926 -16.8922 -16.8922 -16.8922 -16.8922
   -16.8684 -16.8684 -16.8684 -16.8684 -16.8683 -16.8683 -16.8683 -16.8683
   -14.6702 -14.6702 -14.6702 -14.6702 -14.6697 -14.6697 -14.6697 -14.6697
   -11.8566 -11.8566 -11.8566 -11.8566 -11.8529 -11.8529 -11.8529 -11.8529
   -11.6079 -11.6079 -11.6079 -11.6079  -8.8810  -8.8810  -8.8810  -8.8810
    -8.8503  -8.8503  -8.8503  -8.8503  -8.6955  -8.6955  -8.6955  -8.6955
    -8.6685  -8.6685  -8.6685  -8.6685  -8.5924  -8.5924  -8.5924  -8.5924
    -8.4426  -8.4426  -8.4426  -8.4426  -8.3057  -8.3057  -8.3057  -8.3057
    -8.1972  -8.1972  -8.1972  -8.1972  -7.7591  -7.7591  -7.7591  -7.7591
    -7.7061  -7.7061  -7.7061  -7.7061  -7.5149  -7.5149  -7.5149  -7.5149
    -7.3916  -7.3916  -7.3916  -7.3916  -7.0535  -7.0535  -7.0535  -7.0535
    -7.0427  -7.0427  -7.0427  -7.0427  -7.0399  -7.0399  -7.0399  -7.0399
    -6.9713  -6.9713  -6.9713  -6.9713  -6.8980  -6.8980  -6.8980  -6.8980
    -6.8921  -6.8921  -6.8921  -6.8921  -5.3583  -5.3583  -5.3583  -5.3583
    -5.3088  -5.3088  -5.3088  -5.3088  -5.2912  -5.2912  -5.2912  -5.2912
    -5.2731  -5.2731  -5.2731  -5.2731  -4.7912  -4.7912  -4.7912  -4.7912
    -4.7728  -4.7728  -4.7728  -4.7728  -4.7601  -4.7601  -4.7601  -4.7601
    -4.7156  -4.7156  -4.7156  -4.7156  -4.2043  -4.2043  -4.2043  -4.2043
    -3.4737  -3.4737  -3.4737  -3.4737  -3.4632  -3.4632  -3.4632  -3.4632
    -3.4132  -3.4132  -3.4132  -3.4132  -3.4081  -3.4081  -3.4081  -3.4081
    -1.5389  -1.5389  -1.5389  -1.5389  -1.5129  -1.5129  -1.5129  -1.5129
    -1.4542  -1.4542  -1.4542  -1.4542  -1.4447  -1.4447  -1.4447  -1.4447
    -1.4301  -1.4301  -1.4301  -1.4301  -1.4200  -1.4200  -1.4200  -1.4200
    -1.3568  -1.3568  -1.3568  -1.3568  -1.3390  -1.3390  -1.3390  -1.3390
    -0.3277  -0.3277  -0.3277  -0.3277   0.9626   0.9626   0.9626   0.9626
     2.0928   2.0928   2.0928   2.0928   2.4891   2.4891   2.4891   2.4891
     4.2096   4.2096   4.2096   4.2096   4.7765   4.7765   4.7765   4.7765
     5.8466   5.8466   5.8466   5.8466   5.9129   5.9129   5.9129   5.9129
     6.0661   6.0661   6.0661   6.0661   6.3101   6.3101   6.3101   6.3101
     6.5866   6.5866   6.5866   6.5866   6.6028   6.6028   6.6028   6.6028
     6.6076   6.6076   6.6076   6.6076   6.7547   6.7547   6.7547   6.7547
     6.7829   6.7829   6.7829   6.7829   6.9527   6.9527   6.9527   6.9527
     7.0706   7.0706   7.0706   7.0706   7.1724   7.1724   7.1724   7.1724
     7.2196   7.2196   7.2196   7.2196   7.2942   7.2942   7.2942   7.2942
     7.5403   7.5403   7.5403   7.5403   7.5597   7.5597   7.5597   7.5597
     7.6015   7.6015   7.6015   7.6015   7.6943   7.6943   7.6943   7.6943
     7.7531   7.7531   7.7531   7.7531   7.7774   7.7774   7.7774   7.7774
     7.8140   7.8140   7.8140   7.8140   7.8856   7.8856   7.8856   7.8856
     7.9495   7.9495   7.9495   7.9495   8.0512   8.0512   8.0512   8.0512
     8.0720   8.0720   8.0720   8.0720   8.0973   8.0973   8.0973   8.0973
     8.2370   8.2370   8.2370   8.2370   8.2686   8.2686   8.2686   8.2686
     8.2703   8.2703   8.2703   8.2703   8.3825   8.3825   8.3825   8.3825
     9.6099   9.6099   9.6099   9.6099  10.1986  10.1986  10.1986  10.1986
    11.8175  11.8175  11.8175  11.8175  12.1924  12.1924  12.1924  12.1924
    14.0471  14.0471  14.0471  14.0471  14.3677  14.3677  14.3677  14.3677
    14.3828  14.3828  14.3828  14.3828  14.5698  14.5698  14.5698  14.5698
    14.7942  14.7942  14.7942  14.7942  14.8245  14.8245  14.8245  14.8245
    14.8265  14.8265  14.8265  14.8265  15.0047  15.0047  15.0047  15.0047
    15.3671  15.3671  15.3671  15.3671  15.5152  15.5152  15.5152  15.5152
    15.6413  15.6413  15.6413  15.6413  15.6415  15.6415  15.6415  15.6415
    15.6543  15.6543  15.6543  15.6543  15.6631  15.6631  15.6631  15.6631
    15.8751  15.8751  15.8751  15.8751  15.9045  15.9045  15.9045  15.9045
    16.0037  16.0037  16.0037  16.0037  16.0222  16.0222  16.0222  16.0222
    16.1663  16.1663  16.1663  16.1663  16.3973  16.3973  16.3975  16.3977

          k = 0.2500 0.2500 0.2500 ( 49472 PWs)   bands (ev):

   -16.9078 -16.9078 -16.8882 -16.8882 -16.8880 -16.8880 -16.8880 -16.8880
   -16.8715 -16.8715 -16.8715 -16.8715 -16.8714 -16.8714 -16.8565 -16.8565
   -14.6703 -14.6703 -14.6701 -14.6701 -14.6700 -14.6700 -14.6698 -14.6698
   -11.8560 -11.8560 -11.8557 -11.8557 -11.8556 -11.8556 -11.8553 -11.8553
   -11.6082 -11.6082 -11.6076 -11.6076  -8.9655  -8.9655  -8.9476  -8.9476
    -8.8379  -8.8379  -8.8155  -8.8155  -8.8146  -8.8146  -8.7696  -8.7696
    -8.7688  -8.7688  -8.5533  -8.5533  -8.5468  -8.5468  -8.5034  -8.5034
    -8.4640  -8.4640  -8.4562  -8.4562  -8.2257  -8.2257  -8.1302  -8.1302
    -8.0234  -8.0234  -7.9534  -7.9534  -7.9501  -7.9501  -7.7893  -7.7893
    -7.7850  -7.7850  -7.7125  -7.7125  -7.4120  -7.4120  -7.4120  -7.4120
    -7.4035  -7.4035  -7.3673  -7.3673  -7.1998  -7.1998  -7.1987  -7.1987
    -7.1410  -7.1410  -7.1267  -7.1267  -7.0818  -7.0818  -7.0114  -7.0114
    -7.0085  -7.0085  -6.8875  -6.8875  -6.8796  -6.8796  -6.8776  -6.8776
    -6.8747  -6.8747  -6.8732  -6.8732  -5.3256  -5.3256  -5.3040  -5.3040
    -5.2979  -5.2979  -5.2957  -5.2957  -5.2792  -5.2792  -5.2787  -5.2787
    -5.2656  -5.2656  -5.2078  -5.2078  -5.2058  -5.2058  -5.1452  -5.1452
    -5.0171  -5.0171  -5.0155  -5.0155  -4.7979  -4.7979  -4.4762  -4.4762
    -4.4711  -4.4711  -4.2790  -4.2790  -4.2686  -4.2686  -4.0691  -4.0691
    -3.5395  -3.5395  -3.4507  -3.4507  -3.4460  -3.4460  -3.4420  -3.4420
    -3.4296  -3.4296  -3.4053  -3.4053  -3.4043  -3.4043  -3.4012  -3.4012
    -1.6294  -1.6294  -1.5751  -1.5751  -1.5221  -1.5221  -1.5026  -1.5026
    -1.4918  -1.4918  -1.4405  -1.4405  -1.4249  -1.4249  -1.4095  -1.4095
    -1.4080  -1.4080  -1.3995  -1.3995  -1.3927  -1.3927  -1.3830  -1.3830
    -1.3734  -1.3734  -1.3626  -1.3626  -1.3442  -1.3442  -1.3307  -1.3307
    -0.6454  -0.6454  -0.1547  -0.1547   1.3486   1.3486   1.3642   1.3642
     1.4701   1.4701   2.3449   2.3449   2.3826   2.3826   2.9766   2.9766
     4.5448   4.5448   4.5652   4.5652   4.7712   4.7712   4.9923   4.9923
     5.0931   5.0931   5.2028   5.2028   5.3317   5.3317   5.4091   5.4091
     5.5187   5.5187   5.7155   5.7155   5.7955   5.7955   6.4648   6.4648
     6.4668   6.4668   6.5450   6.5450   6.5945   6.5945   6.6094   6.6094
     6.6113   6.6113   6.6262   6.6262   6.8883   6.8883   7.0440   7.0440
     7.0661   7.0661   7.0834   7.0834   7.1371   7.1371   7.1505   7.1505
     7.2036   7.2036   7.2257   7.2257   7.2415   7.2415   7.2467   7.2467
     7.2548   7.2548   7.2792   7.2792   7.4430   7.4430   7.4516   7.4516
     7.5026   7.5026   7.5052   7.5052   7.5204   7.5204   7.5476   7.5476
     7.5604   7.5604   7.5604   7.5604   7.5684   7.5684   7.6462   7.6462
     7.7253   7.7253   7.7546   7.7546   7.7587   7.7587   7.7680   7.7680
     7.7696   7.7696   7.8679   7.8679   7.8838   7.8838   7.8941   7.8941
     7.9442   7.9442   7.9615   7.9615   7.9963   7.9963   8.0048   8.0048
     8.0217   8.0217   8.0294   8.0294   8.0320   8.0320   8.0937   8.0937
     8.1396   8.1396   8.2728   8.2728   8.3911   8.3911   8.4086   8.4086
     8.4143   8.4143   8.4167   8.4167   8.4836   8.4836   8.4905   8.4905
     8.5812   8.5812  10.1113  10.1113  10.9469  10.9469  10.9782  10.9782
    11.2493  11.2493  12.0826  12.0826  12.1640  12.1640  12.3005  12.3005
    13.6617  13.6617  13.8416  13.8416  13.8556  13.8556  14.0736  14.0736
    14.3535  14.3535  14.6502  14.6502  14.6854  14.6854  14.6896  14.6896
    14.7122  14.7122  14.8055  14.8055  14.8226  14.8226  14.8550  14.8550
    14.8904  14.8904  14.9074  14.9074  14.9998  14.9998  15.1607  15.1607
    15.1697  15.1697  15.3425  15.3425  15.4680  15.4680  15.5375  15.5375
    15.5447  15.5447  15.5745  15.5745  15.6368  15.6368  15.6565  15.6565
    15.6838  15.6838  15.8120  15.8120  15.8200  15.8200  15.8215  15.8215
    15.8451  15.8451  15.8467  15.8467  15.9083  15.9083  15.9126  15.9126
    15.9420  15.9420  15.9749  15.9749  16.0746  16.0746  16.0929  16.0929
    16.2896  16.2896  16.3166  16.3166  16.5910  16.5912  16.6009  16.6012

          k = 0.2500 0.2500-0.5000 ( 49498 PWs)   bands (ev):

   -16.8980 -16.8980 -16.8980 -16.8980 -16.8798 -16.8798 -16.8798 -16.8798
   -16.8798 -16.8798 -16.8798 -16.8798 -16.8640 -16.8640 -16.8640 -16.8640
   -14.6701 -14.6701 -14.6701 -14.6701 -14.6698 -14.6698 -14.6698 -14.6698
   -11.8557 -11.8557 -11.8557 -11.8557 -11.8538 -11.8538 -11.8538 -11.8538
   -11.6079 -11.6079 -11.6079 -11.6079  -8.8903  -8.8903  -8.8903  -8.8903
    -8.8175  -8.8175  -8.8175  -8.8175  -8.7747  -8.7747  -8.7747  -8.7747
    -8.6191  -8.6191  -8.6191  -8.6191  -8.5934  -8.5934  -8.5934  -8.5934
    -8.3939  -8.3939  -8.3939  -8.3939  -8.3618  -8.3618  -8.3618  -8.3618
    -8.0819  -8.0819  -8.0819  -8.0819  -7.9249  -7.9249  -7.9249  -7.9249
    -7.7738  -7.7738  -7.7738  -7.7738  -7.4001  -7.4001  -7.4001  -7.4001
    -7.2749  -7.2749  -7.2749  -7.2749  -7.1519  -7.1519  -7.1519  -7.1519
    -7.1130  -7.1130  -7.1130  -7.1130  -6.9751  -6.9751  -6.9751  -6.9751
    -6.9532  -6.9532  -6.9532  -6.9532  -6.9238  -6.9238  -6.9238  -6.9238
    -6.8780  -6.8780  -6.8780  -6.8780  -5.3107  -5.3107  -5.3107  -5.3107
    -5.2885  -5.2885  -5.2885  -5.2885  -5.2753  -5.2753  -5.2753  -5.2753
    -5.2210  -5.2210  -5.2210  -5.2210  -5.0970  -5.0970  -5.0970  -5.0970
    -4.8262  -4.8262  -4.8262  -4.8262  -4.7048  -4.7048  -4.7048  -4.7048
    -4.5310  -4.5310  -4.5310  -4.5310  -4.2208  -4.2208  -4.2208  -4.2208
    -3.4938  -3.4938  -3.4938  -3.4938  -3.4265  -3.4265  -3.4265  -3.4265
    -3.4233  -3.4233  -3.4233  -3.4233  -3.4142  -3.4142  -3.4142  -3.4142
    -1.5717  -1.5717  -1.5717  -1.5717  -1.4865  -1.4865  -1.4865  -1.4865
    -1.4695  -1.4695  -1.4695  -1.4695  -1.4510  -1.4510  -1.4510  -1.4510
    -1.4273  -1.4273  -1.4273  -1.4273  -1.3795  -1.3795  -1.3795  -1.3795
    -1.3617  -1.3617  -1.3617  -1.3617  -1.3451  -1.3451  -1.3451  -1.3451
    -0.3631  -0.3631  -0.3631  -0.3631   1.2007   1.2007   1.2007   1.2007
     1.7421   1.7421   1.7421   1.7421   2.4992   2.4992   2.4992   2.4992
     4.6464   4.6464   4.6464   4.6464   5.0197   5.0197   5.0197   5.0197
     5.2986   5.2986   5.2986   5.2986   5.5212   5.5212   5.5212   5.5212
     6.2802   6.2802   6.2802   6.2802   6.3995   6.3995   6.3995   6.3995
     6.4938   6.4938   6.4938   6.4938   6.5787   6.5787   6.5787   6.5787
     6.6585   6.6585   6.6585   6.6585   6.6746   6.6746   6.6746   6.6746
     6.7479   6.7479   6.7479   6.7479   7.1049   7.1049   7.1049   7.1049
     7.1352   7.1352   7.1352   7.1352   7.2118   7.2118   7.2118   7.2118
     7.2407   7.2407   7.2407   7.2407   7.3524   7.3524   7.3524   7.3524
     7.4466   7.4466   7.4466   7.4466   7.4729   7.4729   7.4729   7.4729
     7.5301   7.5301   7.5301   7.5301   7.5411   7.5411   7.5411   7.5411
     7.8075   7.8075   7.8075   7.8075   7.8488   7.8488   7.8488   7.8488
     7.8646   7.8646   7.8646   7.8646   7.9272   7.9272   7.9272   7.9272
     8.0134   8.0134   8.0134   8.0134   8.0532   8.0532   8.0532   8.0532
     8.0888   8.0888   8.0888   8.0888   8.1165   8.1165   8.1165   8.1165
     8.2573   8.2573   8.2573   8.2573   8.2688   8.2688   8.2688   8.2688
     8.2944   8.2944   8.2944   8.2944   8.4509   8.4509   8.4509   8.4509
     9.3646   9.3646   9.3646   9.3646  10.7838  10.7838  10.7838  10.7838
    11.3726  11.3726  11.3726  11.3726  12.0759  12.0759  12.0759  12.0759
    14.1074  14.1074  14.1074  14.1074  14.2287  14.2287  14.2287  14.2287
    14.3520  14.3520  14.3520  14.3520  14.5671  14.5671  14.5671  14.5671
    14.7974  14.7974  14.7974  14.7974  14.8608  14.8608  14.8608  14.8608
    14.9901  14.9901  14.9901  14.9901  15.1197  15.1197  15.1197  15.1197
    15.1758  15.1758  15.1758  15.1758  15.5024  15.5024  15.5024  15.5024
    15.5087  15.5087  15.5087  15.5087  15.6440  15.6440  15.6440  15.6440
    15.7602  15.7602  15.7602  15.7602  15.8087  15.8087  15.8087  15.8087
    15.8584  15.8584  15.8584  15.8584  15.9410  15.9410  15.9410  15.9410
    15.9561  15.9561  15.9561  15.9561  16.1164  16.1164  16.1164  16.1164
    16.1808  16.1808  16.1808  16.1808  16.3166  16.3166  16.3167  16.3177

          k = 0.2500-0.5000-0.5000 ( 49512 PWs)   bands (ev):

   -16.8890 -16.8890 -16.8890 -16.8890 -16.8888 -16.8888 -16.8888 -16.8888
   -16.8720 -16.8720 -16.8720 -16.8720 -16.8718 -16.8718 -16.8718 -16.8718
   -14.6701 -14.6701 -14.6701 -14.6701 -14.6697 -14.6697 -14.6697 -14.6697
   -11.8548 -11.8548 -11.8548 -11.8548 -11.8529 -11.8529 -11.8529 -11.8529
   -11.6079 -11.6079 -11.6079 -11.6079  -8.8064  -8.8064  -8.8064  -8.8064
    -8.7991  -8.7991  -8.7991  -8.7991  -8.6943  -8.6943  -8.6943  -8.6943
    -8.6663  -8.6663  -8.6663  -8.6663  -8.5924  -8.5924  -8.5924  -8.5924
    -8.4717  -8.4717  -8.4717  -8.4717  -8.3857  -8.3857  -8.3857  -8.3857
    -8.1829  -8.1829  -8.1829  -8.1829  -8.0295  -8.0295  -8.0295  -8.0295
    -7.8395  -7.8395  -7.8395  -7.8395  -7.3424  -7.3424  -7.3424  -7.3424
    -7.1636  -7.1636  -7.1636  -7.1636  -7.0533  -7.0533  -7.0533  -7.0533
    -7.0437  -7.0437  -7.0437  -7.0437  -7.0325  -7.0325  -7.0325  -7.0325
    -6.9733  -6.9733  -6.9733  -6.9733  -6.9232  -6.9232  -6.9232  -6.9232
    -6.9150  -6.9150  -6.9150  -6.9150  -5.3039  -5.3039  -5.3039  -5.3039
    -5.2913  -5.2913  -5.2913  -5.2913  -5.2787  -5.2787  -5.2787  -5.2787
    -5.1657  -5.1657  -5.1657  -5.1657  -4.7878  -4.7878  -4.7878  -4.7878
    -4.7803  -4.7803  -4.7803  -4.7803  -4.7766  -4.7766  -4.7766  -4.7766
    -4.7159  -4.7159  -4.7159  -4.7159  -4.3518  -4.3518  -4.3518  -4.3518
    -3.4640  -3.4640  -3.4640  -3.4640  -3.4557  -3.4557  -3.4557  -3.4557
    -3.4203  -3.4203  -3.4203  -3.4203  -3.4166  -3.4166  -3.4166  -3.4166
    -1.5336  -1.5336  -1.5336  -1.5336  -1.5111  -1.5111  -1.5111  -1.5111
    -1.4568  -1.4568  -1.4568  -1.4568  -1.4421  -1.4421  -1.4421  -1.4421
    -1.4298  -1.4298  -1.4298  -1.4298  -1.4165  -1.4165  -1.4165  -1.4165
    -1.3559  -1.3559  -1.3559  -1.3559  -1.3399  -1.3399  -1.3399  -1.3399
    -0.3001  -0.3001  -0.3001  -0.3001   1.0874   1.0874   1.0874   1.0874
     1.7458   1.7458   1.7458   1.7458   2.0809   2.0809   2.0809   2.0809
     4.7973   4.7973   4.7973   4.7973   5.2715   5.2715   5.2715   5.2715
     5.8749   5.8749   5.8749   5.8749   5.9258   5.9258   5.9258   5.9258
     6.0597   6.0597   6.0597   6.0597   6.3007   6.3007   6.3007   6.3007
     6.5319   6.5319   6.5319   6.5319   6.5608   6.5608   6.5608   6.5608
     6.5828   6.5828   6.5828   6.5828   6.6442   6.6442   6.6442   6.6442
     6.7322   6.7322   6.7322   6.7322   6.9103   6.9103   6.9103   6.9103
     7.1055   7.1055   7.1055   7.1055   7.1947   7.1947   7.1947   7.1947
     7.2238   7.2238   7.2238   7.2238   7.2447   7.2447   7.2447   7.2447
     7.3677   7.3677   7.3677   7.3677   7.4036   7.4036   7.4036   7.4036
     7.4160   7.4160   7.4160   7.4160   7.4892   7.4892   7.4892   7.4892
     7.9104   7.9104   7.9104   7.9104   7.9344   7.9344   7.9344   7.9344
     7.9448   7.9448   7.9448   7.9448   7.9955   7.9955   7.9955   7.9955
     8.1005   8.1005   8.1005   8.1005   8.1350   8.1350   8.1350   8.1350
     8.1481   8.1481   8.1481   8.1481   8.1799   8.1799   8.1799   8.1799
     8.2156   8.2156   8.2156   8.2156   8.2460   8.2460   8.2460   8.2460
     8.2698   8.2698   8.2698   8.2698   8.3556   8.3556   8.3556   8.3556
     9.6167   9.6167   9.6167   9.6167  10.3134  10.3134  10.3134  10.3134
    11.2656  11.2656  11.2656  11.2656  11.6534  11.6534  11.6534  11.6534
    14.3461  14.3461  14.3461  14.3461  14.4869  14.4869  14.4869  14.4869
    14.5224  14.5224  14.5224  14.5224  14.7188  14.7188  14.7188  14.7188
    14.7802  14.7802  14.7802  14.7802  14.7887  14.7887  14.7887  14.7887
    14.8057  14.8057  14.8057  14.8057  14.9196  14.9196  14.9196  14.9196
    15.3115  15.3115  15.3115  15.3115  15.4924  15.4924  15.4924  15.4924
    15.5638  15.5638  15.5638  15.5638  15.5946  15.5946  15.5946  15.5946
    15.6573  15.6573  15.6573  15.6573  15.7312  15.7312  15.7312  15.7312
    15.7741  15.7741  15.7741  15.7741  15.8265  15.8265  15.8265  15.8265
    15.9143  15.9143  15.9143  15.9143  16.0048  16.0048  16.0048  16.0048
    16.1638  16.1638  16.1638  16.1638  16.2661  16.2661  16.2661  16.2661

          k =-0.5000-0.5000-0.5000 ( 49232 PWs)   bands (ev):

   -16.8805 -16.8805 -16.8805 -16.8805 -16.8804 -16.8804 -16.8804 -16.8804
   -16.8804 -16.8804 -16.8804 -16.8804 -16.8803 -16.8803 -16.8803 -16.8803
   -14.6698 -14.6698 -14.6698 -14.6698 -14.6698 -14.6698 -14.6698 -14.6698
   -11.8529 -11.8529 -11.8529 -11.8529 -11.8529 -11.8529 -11.8529 -11.8529
   -11.6079 -11.6079 -11.6079 -11.6079  -8.7072  -8.7072  -8.7072  -8.7072
    -8.6948  -8.6948  -8.6948  -8.6948  -8.6948  -8.6948  -8.6948  -8.6948
    -8.5956  -8.5956  -8.5956  -8.5956  -8.5913  -8.5913  -8.5913  -8.5913
    -8.5913  -8.5913  -8.5913  -8.5913  -8.5386  -8.5386  -8.5386  -8.5386
    -8.1022  -8.1022  -8.1022  -8.1022  -8.1002  -8.1002  -8.1002  -8.1002
    -8.1002  -8.1002  -8.1002  -8.1002  -7.0785  -7.0785  -7.0785  -7.0785
    -7.0653  -7.0653  -7.0653  -7.0653  -7.0653  -7.0653  -7.0653  -7.0653
    -7.0414  -7.0414  -7.0414  -7.0414  -7.0414  -7.0414  -7.0414  -7.0414
    -6.9918  -6.9918  -6.9918  -6.9918  -6.9628  -6.9628  -6.9628  -6.9628
    -6.9628  -6.9628  -6.9628  -6.9628  -5.2914  -5.2914  -5.2914  -5.2914
    -5.2914  -5.2914  -5.2914  -5.2914  -5.2911  -5.2911  -5.2911  -5.2911
    -4.8084  -4.8084  -4.8084  -4.8084  -4.8000  -4.8000  -4.8000  -4.8000
    -4.8000  -4.8000  -4.8000  -4.8000  -4.7190  -4.7190  -4.7190  -4.7190
    -4.7145  -4.7145  -4.7145  -4.7145  -4.7145  -4.7145  -4.7145  -4.7145
    -3.4430  -3.4430  -3.4430  -3.4430  -3.4390  -3.4390  -3.4390  -3.4390
    -3.4390  -3.4390  -3.4390  -3.4390  -3.4341  -3.4341  -3.4341  -3.4341
    -1.5115  -1.5115  -1.5115  -1.5115  -1.5115  -1.5115  -1.5115  -1.5115
    -1.4766  -1.4766  -1.4766  -1.4766  -1.4766  -1.4766  -1.4766  -1.4766
    -1.3901  -1.3901  -1.3901  -1.3901  -1.3879  -1.3879  -1.3879  -1.3879
    -1.3603  -1.3603  -1.3603  -1.3603  -1.3603  -1.3603  -1.3603  -1.3603
    -0.2677  -0.2677  -0.2677  -0.2677   1.4450   1.4450   1.4450   1.4450
     1.4885   1.4885   1.4885   1.4885   1.4885   1.4885   1.4885   1.4885
     5.5358   5.5358   5.5358   5.5358   5.7964   5.7964   5.7964   5.7964
     5.7964   5.7964   5.7964   5.7964   6.1034   6.1034   6.1034   6.1034
     6.1034   6.1034   6.1034   6.1034   6.1290   6.1290   6.1290   6.1290
     6.4564   6.4564   6.4564   6.4564   6.4564   6.4564   6.4564   6.4564
     6.5506   6.5506   6.5506   6.5506   6.5538   6.5538   6.5538   6.5538
     6.5538   6.5538   6.5538   6.5538   6.6652   6.6652   6.6652   6.6652
     7.2066   7.2066   7.2066   7.2066   7.2124   7.2124   7.2124   7.2124
     7.2124   7.2124   7.2124   7.2124   7.2286   7.2286   7.2286   7.2286
     7.2361   7.2361   7.2361   7.2361   7.2361   7.2361   7.2361   7.2361
     7.4010   7.4010   7.4010   7.4010   7.4010   7.4010   7.4010   7.4010
     8.0758   8.0758   8.0758   8.0758   8.0889   8.0889   8.0889   8.0889
     8.0889   8.0889   8.0889   8.0889   8.1101   8.1101   8.1101   8.1101
     8.1425   8.1425   8.1425   8.1425   8.1425   8.1425   8.1425   8.1425
     8.2025   8.2025   8.2025   8.2025   8.2025   8.2025   8.2025   8.2025
     8.2319   8.2319   8.2319   8.2319   8.2552   8.2552   8.2552   8.2552
     8.2552   8.2552   8.2552   8.2552   8.2887   8.2887   8.2887   8.2887
     9.6313   9.6313   9.6313   9.6313  10.7294  10.7294  10.7294  10.7294
    10.8144  10.8144  10.8144  10.8144  10.8144  10.8144  10.8144  10.8144
    14.5199  14.5199  14.5199  14.5199  14.6807  14.6807  14.6807  14.6807
    14.6807  14.6807  14.6807  14.6807  14.7625  14.7625  14.7625  14.7625
    14.7625  14.7625  14.7625  14.7625  14.8107  14.8107  14.8107  14.8107
    14.8107  14.8107  14.8107  14.8107  14.8240  14.8240  14.8240  14.8240
    15.2623  15.2623  15.2623  15.2623  15.4494  15.4494  15.4494  15.4494
    15.5247  15.5247  15.5247  15.5247  15.5247  15.5247  15.5247  15.5247
    15.5353  15.5353  15.5353  15.5353  15.7857  15.7857  15.7857  15.7857
    15.7930  15.7930  15.7930  15.7930  15.7930  15.7930  15.7930  15.7930
    15.9156  15.9156  15.9156  15.9156  15.9156  15.9156  15.9156  15.9156
    15.9799  15.9799  15.9799  15.9799  15.9799  15.9799  15.9799  15.9799

     the Fermi energy is     9.4112 ev
     (compare with:     9.3506 eV, computed in scf)

     Writing all to output data dir ./out/bpbo.save/ :
     XML data file, pseudopotentials, collected wavefunctions

     init_run     :      4.88s CPU      8.31s WALL (       1 calls)
     electrons    :   9188.44s CPU  11316.90s WALL (       1 calls)

     Called by init_run:
     wfcinit      :      0.00s CPU      0.56s WALL (       1 calls)
     potinit      :      1.04s CPU      2.06s WALL (       1 calls)
     hinit0       :      0.67s CPU      0.88s WALL (       1 calls)

     Called by electrons:
     c_bands      :   9188.33s CPU  11316.76s WALL (       1 calls)
     v_of_rho     :      0.50s CPU      0.71s WALL (       1 calls)
     newd         :      2.69s CPU      4.25s WALL (       1 calls)

     Called by c_bands:
     init_us_2    :      0.47s CPU      0.50s WALL (      10 calls)
     cegterg      :   9060.78s CPU  11153.93s WALL (      60 calls)

     Called by *egterg:
     cdiaghg      :   1136.67s CPU   1522.90s WALL (    1210 calls)
     h_psi        :   5473.55s CPU   7143.12s WALL (    1270 calls)
     s_psi        :    401.21s CPU    402.88s WALL (    1270 calls)
     g_psi        :     14.68s CPU     14.78s WALL (    1200 calls)

     Called by h_psi:
     h_psi:calbec :    434.82s CPU    464.42s WALL (    1270 calls)
     vloc_psi     :   4633.77s CPU   6269.58s WALL (    1270 calls)
     add_vuspsi   :    383.53s CPU    384.64s WALL (    1270 calls)

     General routines
     calbec       :    434.81s CPU    464.40s WALL (    1270 calls)
     fft          :      0.91s CPU      1.35s WALL (      19 calls)
     ffts         :      0.06s CPU      0.11s WALL (       4 calls)
     fftw         :   3933.39s CPU   5526.81s WALL (  940280 calls)
     interpolate  :      0.25s CPU      0.39s WALL (       4 calls)
     davcio       :      0.01s CPU     33.62s WALL (      20 calls)

     Parallel routines

     PWSCF        :   9234.59s CPU  11522.73s WALL


   This run was terminated on:   9:54:19  23Jun2025            

=------------------------------------------------------------------------------=
   JOB DONE.
=------------------------------------------------------------------------------=
