
     Program PWSCF v.7.3.1 starts on 11Nov2025 at  7:34:39 

     This program is part of the open-source Quantum ESPRESSO suite
     for quantum simulation of materials; please cite
         "P. Giannozzi et al., J. Phys.:Condens. Matter 21 395502 (2009);
         "P. Giannozzi et al., J. Phys.:Condens. Matter 29 465901 (2017);
         "P. Giannozzi et al., J. Chem. Phys. 152 154105 (2020);
          URL http://www.quantum-espresso.org", 
     in publications or presentations arising from this work. More details at
     http://www.quantum-espresso.org/quote

     Parallel version (MPI & OpenMP), running on      72 processor cores
     Number of MPI processes:                36
     Threads/MPI process:                     2

     MPI processes distributed on     6 nodes
     19432 MiB available memory on the printing compute node when the environment starts

     Reading input from BPBO.scf.in

     Current dimensions of program PWSCF are:
     Max number of different atomic species (ntypx) = 10
     Max number of k-points (npk) =  40000
     Max angular momentum in pseudopotentials (lmaxx) =  4
     file Ba.rel-pbe-spn-rrkjus_psl.1.0.0.UPF: wavefunction(s)  5S 6S renormalized
     file Pb.rel-pbe-dn-rrkjus_psl.1.0.0.UPF: wavefunction(s)  6S 5D 5D renormalized
     file Bi.rel-pbe-dn-rrkjus_psl.1.0.0.UPF: wavefunction(s)  5D 5D renormalized
     Found identity + ( -0.5000 -0.5000 -0.5000) symmetry
     This is a supercell, fractional translations are disabled
     Message from routine setup:
     using ibrav=0 with symmetry is DISCOURAGED, use correct ibrav instead

     K-points division:     npool     =       6
     R & G space division:  proc/nbgrp/npool/nimage =       6
     Subspace diagonalization in iterative solution of the eigenvalue problem:
     one sub-group per band group will be used
     scalapack distributed-memory algorithm (size of sub-group:  2*  2 procs)


     Parallelization info
     --------------------
     sticks:   dense  smooth     PW     G-vecs:    dense   smooth      PW
     Min        2160    1082    291               185100    65434    9147
     Max        2161    1083    292               185105    65437    9150
     Sum       12965    6493   1749              1110621   392615   54891

     Using Slab Decomposition



     bravais-lattice index     =            0
     lattice parameter (alat)  =      16.4784  a.u.
     unit-cell volume          =    4474.5163 (a.u.)^3
     number of atoms/cell      =           40
     number of atomic types    =            4
     number of electrons       =       338.00
     number of Kohn-Sham states=          406
     kinetic-energy cutoff     =      75.0000  Ry
     charge density cutoff     =     600.0000  Ry
     scf convergence threshold =      1.0E-11
     mixing beta               =       0.2000
     number of iterations used =            8  plain     mixing
     Exchange-correlation= PBE
                           (   1   4   3   4   0   0   0)
     Non magnetic calculation with spin-orbit


     celldm(1)=  16.478412  celldm(2)=   0.000000  celldm(3)=   0.000000
     celldm(4)=   0.000000  celldm(5)=   0.000000  celldm(6)=   0.000000

     crystal axes: (cart. coord. in units of alat)
               a(1) = (   1.000000   0.000000   0.000000 )  
               a(2) = (   0.000000   1.000000   0.000000 )  
               a(3) = (   0.000000   0.000000   1.000000 )  

     reciprocal axes: (cart. coord. in units 2 pi/alat)
               b(1) = (  1.000000  0.000000  0.000000 )  
               b(2) = (  0.000000  1.000000  0.000000 )  
               b(3) = (  0.000000  0.000000  1.000000 )  


     PseudoPot. # 1 for Ba read from file:
     ./pseudo/Ba.rel-pbe-spn-rrkjus_psl.1.0.0.UPF
     MD5 check sum: 94cfde5357c22a4bf03ae8062d9f9c82
     Pseudo is Ultrasoft + core correction, Zval = 10.0
     Generated using &quot;atomic&quot; code by A. Dal Corso  v.6.2.2
     Using radial grid of 1251 points, 11 beta functions with: 
                l(1) =   0
                l(2) =   0
                l(3) =   0
                l(4) =   1
                l(5) =   1
                l(6) =   1
                l(7) =   1
                l(8) =   2
                l(9) =   2
               l(10) =   2
               l(11) =   2
     Q(r) pseudized with 0 coefficients 


     PseudoPot. # 2 for O  read from file:
     ./pseudo/O.rel-pbe-n-rrkjus_psl.1.0.0.UPF
     MD5 check sum: 7bb44c19b4019dea92d8afd4a1c1ae3f
     Pseudo is Ultrasoft + core correction, Zval =  6.0
     Generated using &quot;atomic&quot; code by A. Dal Corso  v.6.3MaX
     Using radial grid of 1095 points,  6 beta functions with: 
                l(1) =   0
                l(2) =   0
                l(3) =   1
                l(4) =   1
                l(5) =   1
                l(6) =   1
     Q(r) pseudized with 0 coefficients 


     PseudoPot. # 3 for Pb read from file:
     ./pseudo/Pb.rel-pbe-dn-rrkjus_psl.1.0.0.UPF
     MD5 check sum: e88f3c92f89adaff2c2c587a7f90e9c0
     Pseudo is Ultrasoft + core correction, Zval = 14.0
     Generated using &quot;atomic&quot; code by A. Dal Corso  v.6.3
     Using radial grid of 1281 points, 10 beta functions with: 
                l(1) =   0
                l(2) =   0
                l(3) =   1
                l(4) =   1
                l(5) =   1
                l(6) =   1
                l(7) =   2
                l(8) =   2
                l(9) =   2
               l(10) =   2
     Q(r) pseudized with 0 coefficients 


     PseudoPot. # 4 for Bi read from file:
     ./pseudo/Bi.rel-pbe-dn-rrkjus_psl.1.0.0.UPF
     MD5 check sum: 0357e51b97995f252f8888940afc4c39
     Pseudo is Ultrasoft + core correction, Zval = 15.0
     Generated using &quot;atomic&quot; code by A. Dal Corso  v.6.2.2
     Using radial grid of 1283 points, 10 beta functions with: 
                l(1) =   0
                l(2) =   0
                l(3) =   1
                l(4) =   1
                l(5) =   1
                l(6) =   1
                l(7) =   2
                l(8) =   2
                l(9) =   2
               l(10) =   2
     Q(r) pseudized with 0 coefficients 


     atomic species   valence    mass     pseudopotential
     Ba               10.00   137.32700     Ba( 1.00)
     O                 6.00    15.99940     O ( 1.00)
     Pb               14.00   207.20000     Pb( 1.00)
     Bi               15.00   208.98040     Bi( 1.00)

     48 Sym. Ops., with inversion, found



   Cartesian axes

     site n.     atom                  positions (alat units)
         1        Ba     tau(   1) = (   0.2500000   0.2500000   0.2500000  )
         2        Ba     tau(   2) = (   0.2500000   0.2500000   0.7500000  )
         3        Ba     tau(   3) = (   0.2500000   0.7500000   0.2500000  )
         4        Ba     tau(   4) = (   0.2500000   0.7500000   0.7500000  )
         5        Ba     tau(   5) = (   0.7500000   0.2500000   0.2500000  )
         6        Ba     tau(   6) = (   0.7500000   0.2500000   0.7500000  )
         7        Ba     tau(   7) = (   0.7500000   0.7500000   0.2500000  )
         8        Ba     tau(   8) = (   0.7500000   0.7500000   0.7500000  )
         9        Bi     tau(   9) = (   0.0000000   0.0000000   0.0000000  )
        10        Bi     tau(  10) = (   0.5000000   0.5000000   0.5000000  )
        11        Pb     tau(  11) = (   0.0000000   0.0000000   0.5000000  )
        12        Pb     tau(  12) = (   0.0000000   0.5000000   0.0000000  )
        13        Pb     tau(  13) = (   0.0000000   0.5000000   0.5000000  )
        14        Pb     tau(  14) = (   0.5000000   0.0000000   0.0000000  )
        15        Pb     tau(  15) = (   0.5000000   0.0000000   0.5000000  )
        16        Pb     tau(  16) = (   0.5000000   0.5000000   0.0000000  )
        17        O      tau(  17) = (   0.0000000   0.2500000   0.0000000  )
        18        O      tau(  18) = (   0.0000000   0.2500000   0.5000000  )
        19        O      tau(  19) = (   0.0000000   0.7500000   0.0000000  )
        20        O      tau(  20) = (   0.0000000   0.7500000   0.5000000  )
        21        O      tau(  21) = (   0.5000000   0.2500000   0.0000000  )
        22        O      tau(  22) = (   0.5000000   0.2500000   0.5000000  )
        23        O      tau(  23) = (   0.5000000   0.7500000   0.0000000  )
        24        O      tau(  24) = (   0.5000000   0.7500000   0.5000000  )
        25        O      tau(  25) = (   0.0000000   0.0000000   0.2500000  )
        26        O      tau(  26) = (   0.0000000   0.0000000   0.7500000  )
        27        O      tau(  27) = (   0.0000000   0.5000000   0.2500000  )
        28        O      tau(  28) = (   0.0000000   0.5000000   0.7500000  )
        29        O      tau(  29) = (   0.5000000   0.0000000   0.2500000  )
        30        O      tau(  30) = (   0.5000000   0.0000000   0.7500000  )
        31        O      tau(  31) = (   0.5000000   0.5000000   0.2500000  )
        32        O      tau(  32) = (   0.5000000   0.5000000   0.7500000  )
        33        O      tau(  33) = (   0.2500000   0.0000000   0.0000000  )
        34        O      tau(  34) = (   0.2500000   0.0000000   0.5000000  )
        35        O      tau(  35) = (   0.2500000   0.5000000   0.0000000  )
        36        O      tau(  36) = (   0.2500000   0.5000000   0.5000000  )
        37        O      tau(  37) = (   0.7500000   0.0000000   0.0000000  )
        38        O      tau(  38) = (   0.7500000   0.0000000   0.5000000  )
        39        O      tau(  39) = (   0.7500000   0.5000000   0.0000000  )
        40        O      tau(  40) = (   0.7500000   0.5000000   0.5000000  )

     number of k points=    84  Marzari-Vanderbilt smearing, width (Ry)=  0.0073
                       cart. coord. in units 2pi/alat
        k(    1) = (   0.0000000   0.0000000   0.0000000), wk =   0.0005787
        k(    2) = (   0.0000000   0.0000000   0.0833333), wk =   0.0034722
        k(    3) = (   0.0000000   0.0000000   0.1666667), wk =   0.0034722
        k(    4) = (   0.0000000   0.0000000   0.2500000), wk =   0.0034722
        k(    5) = (   0.0000000   0.0000000   0.3333333), wk =   0.0034722
        k(    6) = (   0.0000000   0.0000000   0.4166667), wk =   0.0034722
        k(    7) = (   0.0000000   0.0000000  -0.5000000), wk =   0.0017361
        k(    8) = (   0.0000000   0.0833333   0.0833333), wk =   0.0069444
        k(    9) = (   0.0000000   0.0833333   0.1666667), wk =   0.0138889
        k(   10) = (   0.0000000   0.0833333   0.2500000), wk =   0.0138889
        k(   11) = (   0.0000000   0.0833333   0.3333333), wk =   0.0138889
        k(   12) = (   0.0000000   0.0833333   0.4166667), wk =   0.0138889
        k(   13) = (   0.0000000   0.0833333  -0.5000000), wk =   0.0069444
        k(   14) = (   0.0000000   0.1666667   0.1666667), wk =   0.0069444
        k(   15) = (   0.0000000   0.1666667   0.2500000), wk =   0.0138889
        k(   16) = (   0.0000000   0.1666667   0.3333333), wk =   0.0138889
        k(   17) = (   0.0000000   0.1666667   0.4166667), wk =   0.0138889
        k(   18) = (   0.0000000   0.1666667  -0.5000000), wk =   0.0069444
        k(   19) = (   0.0000000   0.2500000   0.2500000), wk =   0.0069444
        k(   20) = (   0.0000000   0.2500000   0.3333333), wk =   0.0138889
        k(   21) = (   0.0000000   0.2500000   0.4166667), wk =   0.0138889
        k(   22) = (   0.0000000   0.2500000  -0.5000000), wk =   0.0069444
        k(   23) = (   0.0000000   0.3333333   0.3333333), wk =   0.0069444
        k(   24) = (   0.0000000   0.3333333   0.4166667), wk =   0.0138889
        k(   25) = (   0.0000000   0.3333333  -0.5000000), wk =   0.0069444
        k(   26) = (   0.0000000   0.4166667   0.4166667), wk =   0.0069444
        k(   27) = (   0.0000000   0.4166667  -0.5000000), wk =   0.0069444
        k(   28) = (   0.0000000  -0.5000000  -0.5000000), wk =   0.0017361
        k(   29) = (   0.0833333   0.0833333   0.0833333), wk =   0.0046296
        k(   30) = (   0.0833333   0.0833333   0.1666667), wk =   0.0138889
        k(   31) = (   0.0833333   0.0833333   0.2500000), wk =   0.0138889
        k(   32) = (   0.0833333   0.0833333   0.3333333), wk =   0.0138889
        k(   33) = (   0.0833333   0.0833333   0.4166667), wk =   0.0138889
        k(   34) = (   0.0833333   0.0833333  -0.5000000), wk =   0.0069444
        k(   35) = (   0.0833333   0.1666667   0.1666667), wk =   0.0138889
        k(   36) = (   0.0833333   0.1666667   0.2500000), wk =   0.0277778
        k(   37) = (   0.0833333   0.1666667   0.3333333), wk =   0.0277778
        k(   38) = (   0.0833333   0.1666667   0.4166667), wk =   0.0277778
        k(   39) = (   0.0833333   0.1666667  -0.5000000), wk =   0.0138889
        k(   40) = (   0.0833333   0.2500000   0.2500000), wk =   0.0138889
        k(   41) = (   0.0833333   0.2500000   0.3333333), wk =   0.0277778
        k(   42) = (   0.0833333   0.2500000   0.4166667), wk =   0.0277778
        k(   43) = (   0.0833333   0.2500000  -0.5000000), wk =   0.0138889
        k(   44) = (   0.0833333   0.3333333   0.3333333), wk =   0.0138889
        k(   45) = (   0.0833333   0.3333333   0.4166667), wk =   0.0277778
        k(   46) = (   0.0833333   0.3333333  -0.5000000), wk =   0.0138889
        k(   47) = (   0.0833333   0.4166667   0.4166667), wk =   0.0138889
        k(   48) = (   0.0833333   0.4166667  -0.5000000), wk =   0.0138889
        k(   49) = (   0.0833333  -0.5000000  -0.5000000), wk =   0.0034722
        k(   50) = (   0.1666667   0.1666667   0.1666667), wk =   0.0046296
        k(   51) = (   0.1666667   0.1666667   0.2500000), wk =   0.0138889
        k(   52) = (   0.1666667   0.1666667   0.3333333), wk =   0.0138889
        k(   53) = (   0.1666667   0.1666667   0.4166667), wk =   0.0138889
        k(   54) = (   0.1666667   0.1666667  -0.5000000), wk =   0.0069444
        k(   55) = (   0.1666667   0.2500000   0.2500000), wk =   0.0138889
        k(   56) = (   0.1666667   0.2500000   0.3333333), wk =   0.0277778
        k(   57) = (   0.1666667   0.2500000   0.4166667), wk =   0.0277778
        k(   58) = (   0.1666667   0.2500000  -0.5000000), wk =   0.0138889
        k(   59) = (   0.1666667   0.3333333   0.3333333), wk =   0.0138889
        k(   60) = (   0.1666667   0.3333333   0.4166667), wk =   0.0277778
        k(   61) = (   0.1666667   0.3333333  -0.5000000), wk =   0.0138889
        k(   62) = (   0.1666667   0.4166667   0.4166667), wk =   0.0138889
        k(   63) = (   0.1666667   0.4166667  -0.5000000), wk =   0.0138889
        k(   64) = (   0.1666667  -0.5000000  -0.5000000), wk =   0.0034722
        k(   65) = (   0.2500000   0.2500000   0.2500000), wk =   0.0046296
        k(   66) = (   0.2500000   0.2500000   0.3333333), wk =   0.0138889
        k(   67) = (   0.2500000   0.2500000   0.4166667), wk =   0.0138889
        k(   68) = (   0.2500000   0.2500000  -0.5000000), wk =   0.0069444
        k(   69) = (   0.2500000   0.3333333   0.3333333), wk =   0.0138889
        k(   70) = (   0.2500000   0.3333333   0.4166667), wk =   0.0277778
        k(   71) = (   0.2500000   0.3333333  -0.5000000), wk =   0.0138889
        k(   72) = (   0.2500000   0.4166667   0.4166667), wk =   0.0138889
        k(   73) = (   0.2500000   0.4166667  -0.5000000), wk =   0.0138889
        k(   74) = (   0.2500000  -0.5000000  -0.5000000), wk =   0.0034722
        k(   75) = (   0.3333333   0.3333333   0.3333333), wk =   0.0046296
        k(   76) = (   0.3333333   0.3333333   0.4166667), wk =   0.0138889
        k(   77) = (   0.3333333   0.3333333  -0.5000000), wk =   0.0069444
        k(   78) = (   0.3333333   0.4166667   0.4166667), wk =   0.0138889
        k(   79) = (   0.3333333   0.4166667  -0.5000000), wk =   0.0138889
        k(   80) = (   0.3333333  -0.5000000  -0.5000000), wk =   0.0034722
        k(   81) = (   0.4166667   0.4166667   0.4166667), wk =   0.0046296
        k(   82) = (   0.4166667   0.4166667  -0.5000000), wk =   0.0069444
        k(   83) = (   0.4166667  -0.5000000  -0.5000000), wk =   0.0034722
        k(   84) = (  -0.5000000  -0.5000000  -0.5000000), wk =   0.0005787

     Dense  grid:  1110621 G-vectors     FFT dimensions: ( 135, 135, 135)

     Smooth grid:   392615 G-vectors     FFT dimensions: (  96,  96,  96)

     Estimated max dynamical RAM per process >       2.56 GB

     Estimated total dynamical RAM >      86.86 GB

     Initial potential from superposition of free atoms

     starting charge     337.8558, renormalised to     338.0000
     Starting wfcs are  416 randomized atomic wfcs

     total cpu time spent up to now is      183.7 secs

     per-process dynamical memory:  1966.9 Mb

     Self-consistent Calculation

     iteration #  1     ecut=    75.00 Ry     beta= 0.20
     Davidson diagonalization with overlap
     ethr =  1.00E-02,  avg # of iterations = 12.0

     total cpu time spent up to now is      908.5 secs

     total energy              =   -2399.60944602 Ry
     estimated scf accuracy    <      13.17588004 Ry

     iteration #  2     ecut=    75.00 Ry     beta= 0.20
     Davidson diagonalization with overlap
     ethr =  3.90E-03,  avg # of iterations =  2.0

     total cpu time spent up to now is     1471.7 secs

     total energy              =   -2399.19507264 Ry
     estimated scf accuracy    <       3.36603170 Ry

     iteration #  3     ecut=    75.00 Ry     beta= 0.20
     Davidson diagonalization with overlap
     c_bands:  2 eigenvalues not converged
     ethr =  9.96E-04,  avg # of iterations =  6.2

     total cpu time spent up to now is     2382.1 secs

     total energy              =   -2402.71049103 Ry
     estimated scf accuracy    <       1.87005650 Ry

     iteration #  4     ecut=    75.00 Ry     beta= 0.20
     Davidson diagonalization with overlap
     c_bands:  1 eigenvalues not converged
     ethr =  5.53E-04,  avg # of iterations = 10.4

     total cpu time spent up to now is     3195.0 secs

     total energy              =   -2401.73964421 Ry
     estimated scf accuracy    <       6.33474154 Ry

     iteration #  5     ecut=    75.00 Ry     beta= 0.20
     Davidson diagonalization with overlap
     ethr =  5.53E-04,  avg # of iterations =  1.8

     total cpu time spent up to now is     3719.5 secs

     total energy              =   -2400.02245256 Ry
     estimated scf accuracy    <       3.27692939 Ry

     iteration #  6     ecut=    75.00 Ry     beta= 0.20
     Davidson diagonalization with overlap
     ethr =  5.53E-04,  avg # of iterations =  5.7

     total cpu time spent up to now is     4582.7 secs

     total energy              =   -2401.42206271 Ry
     estimated scf accuracy    <       0.71691221 Ry

     iteration #  7     ecut=    75.00 Ry     beta= 0.20
     Davidson diagonalization with overlap
     ethr =  2.12E-04,  avg # of iterations =  2.0

     total cpu time spent up to now is     5115.2 secs

     total energy              =   -2401.18044651 Ry
     estimated scf accuracy    <       0.67513748 Ry

     iteration #  8     ecut=    75.00 Ry     beta= 0.20
     Davidson diagonalization with overlap
     c_bands:  2 eigenvalues not converged
     c_bands:  2 eigenvalues not converged
     ethr =  2.00E-04,  avg # of iterations =  2.9

     total cpu time spent up to now is     5705.2 secs

     total energy              =   -2401.18236993 Ry
     estimated scf accuracy    <       0.12283176 Ry

     iteration #  9     ecut=    75.00 Ry     beta= 0.20
     Davidson diagonalization with overlap
     c_bands:  1 eigenvalues not converged
     c_bands:  5 eigenvalues not converged
     c_bands:  4 eigenvalues not converged
     c_bands:  5 eigenvalues not converged
     c_bands:  1 eigenvalues not converged
     ethr =  3.63E-05,  avg # of iterations = 20.2

     total cpu time spent up to now is     7160.6 secs

     total energy              =   -2401.25860863 Ry
     estimated scf accuracy    <       0.01292871 Ry

     iteration # 10     ecut=    75.00 Ry     beta= 0.20
     Davidson diagonalization with overlap
     c_bands:  1 eigenvalues not converged
     c_bands:  2 eigenvalues not converged
     c_bands:  4 eigenvalues not converged
     c_bands:  4 eigenvalues not converged
     c_bands:  3 eigenvalues not converged
     c_bands:  3 eigenvalues not converged
     c_bands:  2 eigenvalues not converged
     c_bands:  2 eigenvalues not converged
     c_bands:  1 eigenvalues not converged
     ethr =  3.83E-06,  avg # of iterations = 35.7

     total cpu time spent up to now is     9203.8 secs

     total energy              =   -2401.25574728 Ry
     estimated scf accuracy    <       0.07302963 Ry

     iteration # 11     ecut=    75.00 Ry     beta= 0.20
     Davidson diagonalization with overlap
     c_bands:  2 eigenvalues not converged
     c_bands:  1 eigenvalues not converged
     c_bands:  1 eigenvalues not converged
     c_bands:  1 eigenvalues not converged
     ethr =  3.83E-06,  avg # of iterations =  7.5

     total cpu time spent up to now is     9829.7 secs

     total energy              =   -2401.23317907 Ry
     estimated scf accuracy    <       0.04944203 Ry

     iteration # 12     ecut=    75.00 Ry     beta= 0.20
     Davidson diagonalization with overlap
     ethr =  3.83E-06,  avg # of iterations =  5.9

     total cpu time spent up to now is    10759.0 secs

     total energy              =   -2401.24632821 Ry
     estimated scf accuracy    <       0.00150466 Ry

     iteration # 13     ecut=    75.00 Ry     beta= 0.20
     Davidson diagonalization with overlap
     c_bands:  1 eigenvalues not converged
     c_bands:  2 eigenvalues not converged
     ethr =  4.45E-07,  avg # of iterations =  5.9

     total cpu time spent up to now is    11402.6 secs

     total energy              =   -2401.24646768 Ry
     estimated scf accuracy    <       0.00019643 Ry

     iteration # 14     ecut=    75.00 Ry     beta= 0.20
     Davidson diagonalization with overlap
     c_bands:  1 eigenvalues not converged
     ethr =  5.81E-08,  avg # of iterations =  5.5

     total cpu time spent up to now is    12216.7 secs

     total energy              =   -2401.24658882 Ry
     estimated scf accuracy    <       0.00006645 Ry

     iteration # 15     ecut=    75.00 Ry     beta= 0.20
     Davidson diagonalization with overlap
     ethr =  1.97E-08,  avg # of iterations =  5.0

     total cpu time spent up to now is    13034.2 secs

     total energy              =   -2401.24663821 Ry
     estimated scf accuracy    <       0.00006971 Ry

     iteration # 16     ecut=    75.00 Ry     beta= 0.20
     Davidson diagonalization with overlap
     ethr =  1.97E-08,  avg # of iterations =  1.8

     total cpu time spent up to now is    13555.6 secs

     total energy              =   -2401.24660124 Ry
     estimated scf accuracy    <       0.00008496 Ry

     iteration # 17     ecut=    75.00 Ry     beta= 0.20
     Davidson diagonalization with overlap
     ethr =  1.97E-08,  avg # of iterations =  2.2

     total cpu time spent up to now is    14116.6 secs

     total energy              =   -2401.24660641 Ry
     estimated scf accuracy    <       0.00000686 Ry

     iteration # 18     ecut=    75.00 Ry     beta= 0.20
     Davidson diagonalization with overlap
     ethr =  2.03E-09,  avg # of iterations =  5.4

     total cpu time spent up to now is    15004.3 secs

     total energy              =   -2401.24661278 Ry
     estimated scf accuracy    <       0.00001319 Ry

     iteration # 19     ecut=    75.00 Ry     beta= 0.20
     Davidson diagonalization with overlap
     ethr =  2.03E-09,  avg # of iterations =  2.1

     total cpu time spent up to now is    15565.6 secs

     total energy              =   -2401.24661303 Ry
     estimated scf accuracy    <       0.00000249 Ry

     iteration # 20     ecut=    75.00 Ry     beta= 0.20
     Davidson diagonalization with overlap
     ethr =  7.38E-10,  avg # of iterations =  5.4

     total cpu time spent up to now is    16282.9 secs

     total energy              =   -2401.24661416 Ry
     estimated scf accuracy    <       0.00000004 Ry

     iteration # 21     ecut=    75.00 Ry     beta= 0.20
     Davidson diagonalization with overlap
     ethr =  1.20E-11,  avg # of iterations =  9.0

     total cpu time spent up to now is    17335.3 secs

     total energy              =   -2401.24661406 Ry
     estimated scf accuracy    <       0.00000041 Ry

     iteration # 22     ecut=    75.00 Ry     beta= 0.20
     Davidson diagonalization with overlap
     ethr =  1.20E-11,  avg # of iterations =  5.0

     total cpu time spent up to now is    18224.8 secs

     total energy              =   -2401.24661417 Ry
     estimated scf accuracy    <       0.00000002 Ry

     iteration # 23     ecut=    75.00 Ry     beta= 0.20
     Davidson diagonalization with overlap
     ethr =  4.90E-12,  avg # of iterations =  8.2

     total cpu time spent up to now is    19033.1 secs

     total energy              =   -2401.24661417 Ry
     estimated scf accuracy    <       0.00000007 Ry

     iteration # 24     ecut=    75.00 Ry     beta= 0.20
     Davidson diagonalization with overlap
     ethr =  4.90E-12,  avg # of iterations =  1.7

     total cpu time spent up to now is    19555.7 secs

     total energy              =   -2401.24661415 Ry
     estimated scf accuracy    <       0.00000005 Ry

     iteration # 25     ecut=    75.00 Ry     beta= 0.20
     Davidson diagonalization with overlap
     ethr =  4.90E-12,  avg # of iterations =  5.5

     total cpu time spent up to now is    20338.4 secs

     total energy              =   -2401.24661416 Ry
     estimated scf accuracy    <          1.0E-09 Ry

     iteration # 26     ecut=    75.00 Ry     beta= 0.20
     Davidson diagonalization with overlap
     ethr =  3.01E-13,  avg # of iterations =  5.0

     total cpu time spent up to now is    21222.1 secs

     total energy              =   -2401.24661416 Ry
     estimated scf accuracy    <          2.5E-09 Ry

     iteration # 27     ecut=    75.00 Ry     beta= 0.20
     Davidson diagonalization with overlap
     ethr =  3.01E-13,  avg # of iterations =  2.0

     total cpu time spent up to now is    21808.7 secs

     total energy              =   -2401.24661416 Ry
     estimated scf accuracy    <          4.7E-10 Ry

     iteration # 28     ecut=    75.00 Ry     beta= 0.20
     Davidson diagonalization with overlap
     ethr =  1.39E-13,  avg # of iterations =  5.0

     total cpu time spent up to now is    22599.4 secs

     total energy              =   -2401.24661416 Ry
     estimated scf accuracy    <          9.2E-11 Ry

     iteration # 29     ecut=    75.00 Ry     beta= 0.20
     Davidson diagonalization with overlap
     ethr =  1.00E-13,  avg # of iterations =  1.4

     total cpu time spent up to now is    23117.2 secs

     End of self-consistent calculation

          k = 0.0000 0.0000 0.0000 ( 49029 PWs)   bands (ev):

   -16.7896 -16.7896 -16.7583 -16.7583 -16.7583 -16.7583 -16.7583 -16.7583
   -16.7345 -16.7345 -16.7345 -16.7345 -16.7343 -16.7343 -16.7132 -16.7132
   -14.5531 -14.5531 -14.5531 -14.5531 -14.5523 -14.5523 -14.5523 -14.5523
   -11.7479 -11.7479 -11.7479 -11.7479 -11.7466 -11.7466 -11.7466 -11.7466
   -11.4883 -11.4883 -11.4865 -11.4865  -9.0349  -9.0349  -8.9726  -8.9726
    -8.8384  -8.8384  -8.8109  -8.8109  -8.8109  -8.8109  -8.7620  -8.7620
    -8.7620  -8.7620  -8.5048  -8.5048  -8.2960  -8.2960  -8.2960  -8.2960
    -8.2281  -8.2281  -8.2281  -8.2281  -7.8238  -7.8238  -7.6973  -7.6973
    -7.6460  -7.6460  -7.6460  -7.6460  -7.6344  -7.6344  -7.5665  -7.5665
    -7.5665  -7.5665  -7.5151  -7.5151  -7.5045  -7.5045  -7.5045  -7.5045
    -7.3578  -7.3578  -7.3578  -7.3578  -7.3220  -7.3220  -7.2980  -7.2980
    -7.2502  -7.2502  -7.2502  -7.2502  -7.0825  -7.0825  -7.0483  -7.0483
    -7.0483  -7.0483  -6.7319  -6.7319  -6.7280  -6.7280  -6.7280  -6.7280
    -6.7275  -6.7275  -6.7275  -6.7275  -5.4063  -5.4063  -5.3102  -5.3102
    -5.3102  -5.3102  -5.2399  -5.2399  -5.2335  -5.2335  -5.1770  -5.1770
    -5.1770  -5.1770  -5.1574  -5.1574  -5.1574  -5.1574  -5.1377  -5.1377
    -5.0202  -5.0202  -5.0202  -5.0202  -4.8153  -4.8153  -4.1673  -4.1673
    -4.1673  -4.1673  -3.9190  -3.9190  -3.9190  -3.9190  -3.6377  -3.6377
    -3.4748  -3.4748  -3.3430  -3.3430  -3.3136  -3.3136  -3.3136  -3.3136
    -3.3073  -3.3073  -3.2469  -3.2469  -3.2441  -3.2441  -3.2441  -3.2441
    -1.5801  -1.5801  -1.5801  -1.5801  -1.4104  -1.4104  -1.3894  -1.3894
    -1.3894  -1.3894  -1.3300  -1.3300  -1.3300  -1.3300  -1.2469  -1.2469
    -1.2263  -1.2263  -1.2263  -1.2263  -1.2251  -1.2251  -1.2245  -1.2245
    -1.2032  -1.2032  -1.2032  -1.2032  -1.1850  -1.1850  -1.1850  -1.1850
    -0.9504  -0.9504   0.1847   0.1847   1.6576   1.6576   1.6576   1.6576
     2.3717   2.3717   3.5185   3.5185   3.5185   3.5185   3.8382   3.8382
     3.8629   3.8629   4.3035   4.3035   4.3035   4.3035   4.5905   4.5905
     4.5905   4.5905   4.7815   4.7815   4.7815   4.7815   4.9050   4.9050
     5.0443   5.0443   5.1260   5.1260   5.1260   5.1260   6.0406   6.0406
     6.3930   6.3930   6.3930   6.3930   6.4007   6.4007   6.7123   6.7123
     6.7123   6.7123   6.7265   6.7265   7.1758   7.1758   7.3175   7.3175
     7.3175   7.3175   7.3194   7.3194   7.3194   7.3194   7.3229   7.3229
     7.4530   7.4530   7.4530   7.4530   7.4546   7.4546   7.4821   7.4821
     7.5059   7.5059   7.5059   7.5059   7.5481   7.5481   7.5509   7.5509
     7.5509   7.5509   7.5609   7.5609   7.5727   7.5727   7.5727   7.5727
     7.6893   7.6893   7.7179   7.7179   7.7179   7.7179   7.7859   7.7859
     7.7859   7.7859   7.8103   7.8103   7.8872   7.8872   7.8906   7.8906
     7.8906   7.8906   7.9170   7.9170   7.9170   7.9170   7.9292   7.9292
     7.9595   7.9595   7.9690   7.9690   7.9690   7.9690   8.0953   8.0953
     8.2093   8.2093   8.2093   8.2093   8.2950   8.2950   8.2950   8.2950
     8.4516   8.4516   8.4516   8.4516   8.6449   8.6449   8.6449   8.6449
     8.6480   8.6480   8.6935   8.6935   8.7126   8.7126   8.7126   8.7126
     8.7497   8.7497  10.7549  10.7549  11.6074  11.6074  11.6074  11.6074
    12.3513  12.3513  12.4039  12.4039  13.3965  13.3965  13.3965  13.3965
    13.4238  13.4238  13.4238  13.4238  13.4283  13.4283  13.4283  13.4283
    13.9802  13.9802  14.6730  14.6730  14.7889  14.7889  14.8115  14.8115
    14.8343  14.8343  14.8343  14.8343  14.8348  14.8348  14.8376  14.8376
    14.8376  14.8376  15.1698  15.1698  15.1698  15.1698  15.2741  15.2741
    15.4335  15.4335  15.4335  15.4335  15.4815  15.4815  15.4815  15.4815
    15.6096  15.6096  15.6383  15.6383  15.6410  15.6410  15.6410  15.6410
    15.7042  15.7042  15.7987  15.7987  15.7987  15.7987

          k = 0.0000 0.0000 0.0833 ( 49073 PWs)   bands (ev):

   -16.7891 -16.7891 -16.7589 -16.7589 -16.7579 -16.7579 -16.7579 -16.7579
   -16.7349 -16.7349 -16.7348 -16.7348 -16.7340 -16.7340 -16.7136 -16.7136
   -14.5531 -14.5531 -14.5530 -14.5530 -14.5523 -14.5523 -14.5523 -14.5523
   -11.7479 -11.7479 -11.7476 -11.7476 -11.7466 -11.7466 -11.7464 -11.7464
   -11.4883 -11.4883 -11.4865 -11.4865  -9.0295  -9.0295  -8.9689  -8.9689
    -8.8355  -8.8355  -8.8111  -8.8111  -8.8047  -8.8047  -8.7621  -8.7621
    -8.7548  -8.7548  -8.5018  -8.5018  -8.3137  -8.3137  -8.2983  -8.2983
    -8.2466  -8.2466  -8.2271  -8.2271  -7.8428  -7.8428  -7.6933  -7.6933
    -7.6527  -7.6527  -7.6445  -7.6445  -7.6421  -7.6421  -7.6089  -7.6089
    -7.5679  -7.5679  -7.5254  -7.5254  -7.5039  -7.5039  -7.4747  -7.4747
    -7.3701  -7.3701  -7.3567  -7.3567  -7.3266  -7.3266  -7.2879  -7.2879
    -7.2517  -7.2517  -7.2155  -7.2155  -7.0760  -7.0760  -7.0453  -7.0453
    -7.0245  -7.0245  -6.7330  -6.7330  -6.7305  -6.7305  -6.7299  -6.7299
    -6.7284  -6.7284  -6.7276  -6.7276  -5.3985  -5.3985  -5.3103  -5.3103
    -5.2938  -5.2938  -5.2324  -5.2324  -5.2301  -5.2301  -5.1777  -5.1777
    -5.1767  -5.1767  -5.1578  -5.1578  -5.1572  -5.1572  -5.1382  -5.1382
    -5.0245  -5.0245  -5.0048  -5.0048  -4.8085  -4.8085  -4.1756  -4.1756
    -4.1740  -4.1740  -3.9389  -3.9389  -3.9178  -3.9178  -3.6492  -3.6492
    -3.4721  -3.4721  -3.3404  -3.3404  -3.3155  -3.3155  -3.3125  -3.3125
    -3.3071  -3.3071  -3.2481  -3.2481  -3.2454  -3.2454  -3.2452  -3.2452
    -1.5770  -1.5770  -1.5747  -1.5747  -1.4099  -1.4099  -1.3899  -1.3899
    -1.3864  -1.3864  -1.3279  -1.3279  -1.3270  -1.3270  -1.2495  -1.2495
    -1.2297  -1.2297  -1.2267  -1.2267  -1.2261  -1.2261  -1.2259  -1.2259
    -1.2053  -1.2053  -1.2047  -1.2047  -1.1882  -1.1882  -1.1863  -1.1863
    -0.9343  -0.9343   0.1722   0.1722   1.6207   1.6207   1.6715   1.6715
     2.3179   2.3179   3.4051   3.4051   3.4596   3.4596   3.8357   3.8357
     3.9261   3.9261   4.3309   4.3309   4.3747   4.3747   4.5841   4.5841
     4.5876   4.5876   4.8060   4.8060   4.8430   4.8430   4.9222   4.9222
     5.0983   5.0983   5.1146   5.1146   5.1218   5.1218   6.1331   6.1331
     6.3994   6.3994   6.4025   6.4025   6.4122   6.4122   6.7105   6.7105
     6.7149   6.7149   6.7286   6.7286   7.1713   7.1713   7.2987   7.2987
     7.2997   7.2997   7.3263   7.3263   7.3294   7.3294   7.3336   7.3336
     7.4332   7.4332   7.4337   7.4337   7.4601   7.4601   7.4815   7.4815
     7.4887   7.4887   7.5086   7.5086   7.5265   7.5265   7.5474   7.5474
     7.5514   7.5514   7.5592   7.5592   7.6022   7.6022   7.6097   7.6097
     7.6906   7.6906   7.7157   7.7157   7.7226   7.7226   7.7817   7.7817
     7.7884   7.7884   7.8112   7.8112   7.8907   7.8907   7.8936   7.8936
     7.8962   7.8962   7.9061   7.9061   7.9139   7.9139   7.9245   7.9245
     7.9663   7.9663   7.9729   7.9729   7.9737   7.9737   8.0976   8.0976
     8.2059   8.2059   8.2167   8.2167   8.2791   8.2791   8.2910   8.2910
     8.3953   8.3953   8.4521   8.4521   8.6342   8.6342   8.6360   8.6360
     8.6471   8.6471   8.6776   8.6776   8.6951   8.6951   8.7080   8.7080
     8.7335   8.7335  10.7315  10.7315  11.5531  11.5531  11.6204  11.6204
    12.3526  12.3526  12.3843  12.3843  13.3414  13.3414  13.3681  13.3681
    13.4244  13.4244  13.4263  13.4263  13.4419  13.4419  13.4600  13.4600
    14.0335  14.0335  14.6638  14.6638  14.7968  14.7968  14.8102  14.8102
    14.8365  14.8365  14.8391  14.8391  14.8446  14.8446  14.8522  14.8522
    14.8587  14.8587  15.1366  15.1366  15.1747  15.1747  15.2908  15.2908
    15.4413  15.4413  15.4580  15.4580  15.4895  15.4895  15.4986  15.4986
    15.6156  15.6156  15.6224  15.6224  15.6394  15.6394  15.6552  15.6552
    15.7155  15.7175  15.8021  15.8132  15.8138  15.8145

          k = 0.0000 0.0000 0.1667 ( 49081 PWs)   bands (ev):

   -16.7875 -16.7875 -16.7604 -16.7604 -16.7567 -16.7567 -16.7567 -16.7567
   -16.7361 -16.7361 -16.7359 -16.7359 -16.7330 -16.7330 -16.7147 -16.7147
   -14.5530 -14.5530 -14.5529 -14.5529 -14.5524 -14.5524 -14.5523 -14.5523
   -11.7478 -11.7478 -11.7469 -11.7469 -11.7467 -11.7467 -11.7457 -11.7457
   -11.4882 -11.4882 -11.4866 -11.4866  -9.0136  -9.0136  -8.9584  -8.9584
    -8.8292  -8.8292  -8.8114  -8.8114  -8.7877  -8.7877  -8.7626  -8.7626
    -8.7308  -8.7308  -8.4923  -8.4923  -8.3589  -8.3589  -8.3062  -8.3062
    -8.2950  -8.2950  -8.2241  -8.2241  -7.8968  -7.8968  -7.7559  -7.7559
    -7.6844  -7.6844  -7.6405  -7.6405  -7.6316  -7.6316  -7.6221  -7.6221
    -7.5719  -7.5719  -7.5488  -7.5488  -7.5021  -7.5021  -7.4133  -7.4133
    -7.4016  -7.4016  -7.3534  -7.3534  -7.3268  -7.3268  -7.2853  -7.2853
    -7.2559  -7.2559  -7.1339  -7.1339  -7.0734  -7.0734  -7.0222  -7.0222
    -6.9725  -6.9725  -6.7396  -6.7396  -6.7374  -6.7374  -6.7361  -6.7361
    -6.7289  -6.7289  -6.7277  -6.7277  -5.3794  -5.3794  -5.3106  -5.3106
    -5.2612  -5.2612  -5.2292  -5.2292  -5.1872  -5.1872  -5.1800  -5.1800
    -5.1757  -5.1757  -5.1586  -5.1586  -5.1564  -5.1564  -5.1395  -5.1395
    -5.0370  -5.0370  -4.9572  -4.9572  -4.7888  -4.7888  -4.1998  -4.1998
    -4.1954  -4.1954  -3.9960  -3.9960  -3.9142  -3.9142  -3.6815  -3.6815
    -3.4641  -3.4641  -3.3332  -3.3332  -3.3231  -3.3231  -3.3092  -3.3092
    -3.3045  -3.3045  -3.2517  -3.2517  -3.2493  -3.2493  -3.2484  -3.2484
    -1.5680  -1.5680  -1.5587  -1.5587  -1.4135  -1.4135  -1.3864  -1.3864
    -1.3774  -1.3774  -1.3219  -1.3219  -1.3185  -1.3185  -1.2623  -1.2623
    -1.2343  -1.2343  -1.2321  -1.2321  -1.2318  -1.2318  -1.2247  -1.2247
    -1.2110  -1.2110  -1.2085  -1.2085  -1.1974  -1.1974  -1.1899  -1.1899
    -0.8855  -0.8855   0.1310   0.1310   1.5330   1.5330   1.7136   1.7136
     2.1749   2.1749   3.1597   3.1597   3.3928   3.3928   3.8216   3.8216
     3.9960   3.9960   4.3696   4.3696   4.5125   4.5125   4.5390   4.5390
     4.5790   4.5790   4.9150   4.9150   4.9191   4.9191   4.9428   4.9428
     5.1098   5.1098   5.2108   5.2108   5.3192   5.3192   6.3422   6.3422
     6.4180   6.4180   6.4205   6.4205   6.4556   6.4556   6.7039   6.7039
     6.7120   6.7120   6.7426   6.7426   7.1549   7.1549   7.2695   7.2695
     7.2799   7.2799   7.3273   7.3273   7.3423   7.3423   7.3525   7.3525
     7.3858   7.3858   7.3966   7.3966   7.4396   7.4396   7.4773   7.4773
     7.4930   7.4930   7.4955   7.4955   7.5063   7.5063   7.5202   7.5202
     7.5375   7.5375   7.5448   7.5448   7.6740   7.6740   7.6910   7.6910
     7.6948   7.6948   7.7086   7.7086   7.7391   7.7391   7.7727   7.7727
     7.7869   7.7869   7.8278   7.8278   7.8701   7.8701   7.8829   7.8829
     7.8860   7.8860   7.9062   7.9062   7.9089   7.9089   7.9166   7.9166
     7.9851   7.9851   7.9999   7.9999   8.0015   8.0015   8.1008   8.1008
     8.1961   8.1961   8.2177   8.2177   8.2317   8.2317   8.2706   8.2706
     8.2775   8.2775   8.4535   8.4535   8.6031   8.6031   8.6046   8.6046
     8.6243   8.6243   8.6445   8.6445   8.6498   8.6498   8.6884   8.6884
     8.7028   8.7028  10.6403  10.6403  11.4312  11.4312  11.6602  11.6602
    12.2106  12.2106  12.4756  12.4756  13.1406  13.1406  13.2839  13.2839
    13.4787  13.4787  13.4930  13.4930  13.4984  13.4984  13.5528  13.5528
    14.1099  14.1099  14.6442  14.6442  14.7337  14.7337  14.7779  14.7779
    14.8591  14.8591  14.8732  14.8732  14.9079  14.9079  14.9180  14.9180
    14.9283  14.9283  15.0942  15.0942  15.1899  15.1899  15.2760  15.2760
    15.4636  15.4636  15.4686  15.4686  15.5089  15.5090  15.5440  15.5440
    15.5914  15.5914  15.6070  15.6071  15.6780  15.6781  15.7016  15.7016
    15.7240  15.7288  15.8088  15.8089  15.8349  15.8516

          k = 0.0000 0.0000 0.2500 ( 49157 PWs)   bands (ev):

   -16.7850 -16.7850 -16.7629 -16.7629 -16.7548 -16.7548 -16.7548 -16.7548
   -16.7380 -16.7380 -16.7379 -16.7379 -16.7313 -16.7313 -16.7163 -16.7163
   -14.5530 -14.5530 -14.5528 -14.5528 -14.5524 -14.5524 -14.5522 -14.5522
   -11.7477 -11.7477 -11.7468 -11.7468 -11.7458 -11.7458 -11.7449 -11.7449
   -11.4880 -11.4880 -11.4868 -11.4868  -8.9885  -8.9885  -8.9425  -8.9425
    -8.8236  -8.8236  -8.8120  -8.8120  -8.7655  -8.7655  -8.7637  -8.7637
    -8.6875  -8.6875  -8.4793  -8.4793  -8.4085  -8.4085  -8.3582  -8.3582
    -8.3221  -8.3221  -8.2187  -8.2187  -7.9745  -7.9745  -7.8881  -7.8881
    -7.6748  -7.6748  -7.6341  -7.6341  -7.6258  -7.6258  -7.6180  -7.6180
    -7.5782  -7.5782  -7.5631  -7.5631  -7.4992  -7.4992  -7.4320  -7.4320
    -7.3514  -7.3514  -7.3481  -7.3481  -7.3215  -7.3215  -7.2838  -7.2838
    -7.2627  -7.2627  -7.0842  -7.0842  -7.0488  -7.0488  -6.9767  -6.9767
    -6.9171  -6.9171  -6.7553  -6.7553  -6.7474  -6.7474  -6.7456  -6.7456
    -6.7290  -6.7290  -6.7278  -6.7278  -5.3577  -5.3577  -5.3113  -5.3113
    -5.2342  -5.2342  -5.2241  -5.2241  -5.1838  -5.1838  -5.1742  -5.1742
    -5.1606  -5.1606  -5.1552  -5.1552  -5.1416  -5.1416  -5.0965  -5.0965
    -5.0571  -5.0571  -4.8758  -4.8758  -4.7595  -4.7595  -4.2369  -4.2369
    -4.2357  -4.2357  -4.0829  -4.0829  -3.9075  -3.9075  -3.7278  -3.7278
    -3.4514  -3.4514  -3.3361  -3.3361  -3.3230  -3.3230  -3.3039  -3.3039
    -3.2995  -3.2995  -3.2575  -3.2575  -3.2555  -3.2555  -3.2536  -3.2536
    -1.5536  -1.5536  -1.5331  -1.5331  -1.4257  -1.4257  -1.3742  -1.3742
    -1.3632  -1.3632  -1.3129  -1.3129  -1.3054  -1.3054  -1.2882  -1.2882
    -1.2445  -1.2445  -1.2413  -1.2413  -1.2348  -1.2348  -1.2227  -1.2227
    -1.2187  -1.2187  -1.2138  -1.2138  -1.2112  -1.2112  -1.1950  -1.1950
    -0.8036  -0.8036   0.0525   0.0525   1.4443   1.4443   1.7848   1.7848
     1.9859   1.9859   2.8858   2.8858   3.3763   3.3763   3.7850   3.7850
     4.0357   4.0357   4.3890   4.3890   4.4015   4.4015   4.5648   4.5648
     4.6508   4.6508   4.9169   4.9169   4.9482   4.9482   5.0915   5.0915
     5.1972   5.1972   5.4967   5.4967   5.6626   5.6626   6.4472   6.4472
     6.4474   6.4474   6.5259   6.5259   6.5657   6.5657   6.6895   6.6895
     6.6977   6.6977   6.7677   6.7677   7.1148   7.1148   7.2439   7.2439
     7.2692   7.2692   7.2838   7.2838   7.3282   7.3282   7.3424   7.3424
     7.3456   7.3456   7.3722   7.3722   7.3912   7.3912   7.4012   7.4012
     7.4926   7.4926   7.4970   7.4970   7.5183   7.5183   7.5251   7.5251
     7.5294   7.5294   7.5664   7.5664   7.6857   7.6857   7.6952   7.6952
     7.7544   7.7544   7.7625   7.7625   7.7692   7.7692   7.7807   7.7807
     7.7834   7.7834   7.8128   7.8128   7.8477   7.8477   7.8581   7.8581
     7.8658   7.8658   7.9011   7.9011   7.9149   7.9149   7.9242   7.9242
     7.9782   7.9782   8.0049   8.0049   8.0602   8.0602   8.0628   8.0628
     8.0974   8.0974   8.1546   8.1546   8.1818   8.1818   8.2498   8.2498
     8.3746   8.3746   8.4563   8.4563   8.5410   8.5410   8.5536   8.5536
     8.5546   8.5546   8.5663   8.5663   8.6258   8.6258   8.6543   8.6543
     8.6971   8.6971  10.4325  10.4325  11.3350  11.3350  11.7287  11.7287
    12.0145  12.0145  12.6085  12.6085  12.8788  12.8788  13.2192  13.2192
    13.5308  13.5308  13.6032  13.6032  13.6155  13.6155  13.7017  13.7017
    14.1157  14.1157  14.6136  14.6136  14.6138  14.6138  14.7204  14.7204
    14.9023  14.9023  14.9194  14.9194  15.0079  15.0079  15.0155  15.0155
    15.0414  15.0414  15.0902  15.0902  15.1618  15.1618  15.2426  15.2426
    15.4172  15.4172  15.4545  15.4545  15.4898  15.4898  15.5422  15.5423
    15.5860  15.5860  15.6404  15.6404  15.7140  15.7149  15.7436  15.7443
    15.7821  15.7824  15.7944  15.7945  15.8348  15.8348

          k = 0.0000 0.0000 0.3333 ( 49038 PWs)   bands (ev):

   -16.7818 -16.7818 -16.7662 -16.7662 -16.7524 -16.7524 -16.7523 -16.7523
   -16.7404 -16.7404 -16.7404 -16.7404 -16.7291 -16.7291 -16.7185 -16.7185
   -14.5529 -14.5529 -14.5526 -14.5526 -14.5525 -14.5525 -14.5522 -14.5522
   -11.7476 -11.7476 -11.7469 -11.7469 -11.7447 -11.7447 -11.7440 -11.7440
   -11.4879 -11.4879 -11.4870 -11.4870  -8.9571  -8.9571  -8.9242  -8.9242
    -8.8198  -8.8198  -8.8128  -8.8128  -8.7651  -8.7651  -8.7480  -8.7480
    -8.6261  -8.6261  -8.4948  -8.4948  -8.4220  -8.4220  -8.4053  -8.4053
    -8.3516  -8.3516  -8.2097  -8.2097  -8.0573  -8.0573  -8.0222  -8.0222
    -7.6653  -7.6653  -7.6309  -7.6309  -7.6259  -7.6259  -7.6052  -7.6052
    -7.5864  -7.5864  -7.5725  -7.5725  -7.4948  -7.4948  -7.4544  -7.4544
    -7.3412  -7.3412  -7.3178  -7.3178  -7.3133  -7.3133  -7.2714  -7.2714
    -7.2594  -7.2594  -7.1034  -7.1034  -6.9725  -6.9725  -6.9236  -6.9236
    -6.8684  -6.8684  -6.7785  -6.7785  -6.7651  -6.7651  -6.7580  -6.7580
    -6.7288  -6.7288  -6.7280  -6.7280  -5.3400  -5.3400  -5.3128  -5.3128
    -5.2176  -5.2176  -5.2075  -5.2075  -5.1890  -5.1890  -5.1722  -5.1722
    -5.1625  -5.1625  -5.1535  -5.1535  -5.1440  -5.1440  -5.0832  -5.0832
    -4.9777  -4.9777  -4.7655  -4.7655  -4.7287  -4.7287  -4.3006  -4.3006
    -4.2812  -4.2812  -4.1861  -4.1861  -3.8969  -3.8969  -3.7781  -3.7781
    -3.4347  -3.4347  -3.3532  -3.3532  -3.3112  -3.3112  -3.2971  -3.2971
    -3.2928  -3.2928  -3.2654  -3.2654  -3.2633  -3.2633  -3.2603  -3.2603
    -1.5348  -1.5348  -1.4993  -1.4993  -1.4439  -1.4439  -1.3561  -1.3561
    -1.3468  -1.3468  -1.3252  -1.3252  -1.2971  -1.2971  -1.2895  -1.2895
    -1.2631  -1.2631  -1.2560  -1.2560  -1.2332  -1.2332  -1.2290  -1.2290
    -1.2284  -1.2284  -1.2199  -1.2199  -1.2183  -1.2183  -1.2009  -1.2009
    -0.6897  -0.6897  -0.0675  -0.0675   1.3981   1.3981   1.7926   1.7926
     1.8865   1.8865   2.6241   2.6241   3.4034   3.4034   3.7207   3.7207
     4.0660   4.0660   4.2746   4.2746   4.4317   4.4317   4.5450   4.5450
     4.7087   4.7087   4.8791   4.8791   4.9721   4.9721   5.0691   5.0691
     5.5781   5.5781   5.8777   5.8777   6.0382   6.0382   6.4819   6.4819
     6.4843   6.4843   6.6173   6.6173   6.6667   6.6667   6.6715   6.6715
     6.7360   6.7360   6.7942   6.7942   7.0415   7.0415   7.0621   7.0621
     7.2376   7.2376   7.2535   7.2535   7.2675   7.2675   7.3088   7.3088
     7.3361   7.3361   7.3446   7.3446   7.3497   7.3497   7.4436   7.4436
     7.4587   7.4587   7.4647   7.4647   7.5469   7.5469   7.5532   7.5532
     7.5699   7.5699   7.6056   7.6056   7.6368   7.6368   7.6716   7.6716
     7.6743   7.6743   7.7391   7.7391   7.7650   7.7650   7.7848   7.7848
     7.8003   7.8003   7.8060   7.8060   7.8139   7.8139   7.8243   7.8243
     7.8277   7.8277   7.9173   7.9173   7.9277   7.9277   7.9547   7.9547
     7.9556   7.9556   8.0280   8.0280   8.0771   8.0771   8.0922   8.0922
     8.1339   8.1339   8.1348   8.1348   8.1668   8.1668   8.2021   8.2021
     8.4391   8.4391   8.4599   8.4599   8.4712   8.4712   8.4892   8.4892
     8.4893   8.4893   8.5637   8.5637   8.5834   8.5834   8.6603   8.6603
     8.6904   8.6904  10.1013  10.1013  11.3179  11.3179  11.8084  11.8084
    11.8291  11.8291  12.6073  12.6073  12.7621  12.7621  13.1701  13.1701
    13.5940  13.5940  13.7472  13.7472  13.7699  13.7699  13.8990  13.8990
    14.0356  14.0356  14.4598  14.4598  14.5123  14.5123  14.7057  14.7057
    14.9573  14.9573  14.9680  14.9680  14.9812  14.9812  15.0183  15.0183
    15.1061  15.1061  15.1380  15.1380  15.1927  15.1927  15.3247  15.3247
    15.3339  15.3339  15.4177  15.4177  15.4989  15.4989  15.5681  15.5681
    15.6319  15.6319  15.6921  15.6925  15.7419  15.7419  15.7624  15.7624
    15.8058  15.8058  15.8527  15.8530  15.9214  15.9214

          k = 0.0000 0.0000 0.4167 ( 49098 PWs)   bands (ev):

   -16.7781 -16.7781 -16.7700 -16.7700 -16.7495 -16.7495 -16.7495 -16.7495
   -16.7433 -16.7433 -16.7433 -16.7433 -16.7266 -16.7266 -16.7211 -16.7211
   -14.5528 -14.5528 -14.5526 -14.5526 -14.5525 -14.5525 -14.5523 -14.5523
   -11.7474 -11.7474 -11.7471 -11.7471 -11.7438 -11.7438 -11.7435 -11.7435
   -11.4876 -11.4876 -11.4872 -11.4872  -8.9265  -8.9265  -8.9096  -8.9096
    -8.8172  -8.8172  -8.8139  -8.8139  -8.7644  -8.7644  -8.7461  -8.7461
    -8.5516  -8.5516  -8.5174  -8.5174  -8.4755  -8.4755  -8.4019  -8.4019
    -8.3464  -8.3464  -8.1949  -8.1949  -8.1480  -8.1480  -8.1253  -8.1253
    -7.6558  -7.6558  -7.6380  -7.6380  -7.6163  -7.6163  -7.5959  -7.5959
    -7.5949  -7.5949  -7.5798  -7.5798  -7.4889  -7.4889  -7.4699  -7.4699
    -7.3331  -7.3331  -7.3178  -7.3178  -7.3033  -7.3033  -7.2816  -7.2816
    -7.2110  -7.2110  -7.1305  -7.1305  -6.9077  -6.9077  -6.8725  -6.8725
    -6.8291  -6.8291  -6.8102  -6.8102  -6.7908  -6.7908  -6.7753  -6.7753
    -6.7287  -6.7287  -6.7282  -6.7282  -5.3278  -5.3278  -5.3154  -5.3154
    -5.2103  -5.2103  -5.1954  -5.1954  -5.1778  -5.1778  -5.1699  -5.1699
    -5.1649  -5.1649  -5.1515  -5.1515  -5.1466  -5.1466  -5.1135  -5.1135
    -4.8534  -4.8534  -4.7160  -4.7160  -4.6383  -4.6383  -4.3930  -4.3930
    -4.3204  -4.3204  -4.2811  -4.2811  -3.8808  -3.8808  -3.8227  -3.8227
    -3.4152  -3.4152  -3.3730  -3.3730  -3.2989  -3.2989  -3.2891  -3.2891
    -3.2850  -3.2850  -3.2753  -3.2753  -3.2717  -3.2717  -3.2681  -3.2681
    -1.5129  -1.5129  -1.4658  -1.4658  -1.4592  -1.4592  -1.3716  -1.3716
    -1.3340  -1.3340  -1.3201  -1.3201  -1.2856  -1.2856  -1.2825  -1.2825
    -1.2753  -1.2753  -1.2723  -1.2723  -1.2473  -1.2473  -1.2408  -1.2408
    -1.2305  -1.2305  -1.2229  -1.2229  -1.2163  -1.2163  -1.2067  -1.2067
    -0.5480  -0.5480  -0.2203  -0.2203   1.4143   1.4143   1.6223   1.6223
     2.0204   2.0204   2.3896   2.3896   3.4624   3.4624   3.6348   3.6348
     4.0973   4.0973   4.1919   4.1919   4.4623   4.4623   4.5205   4.5205
     4.7533   4.7533   4.8379   4.8379   4.9954   4.9954   5.0445   5.0445
     5.9837   5.9837   6.2948   6.2948   6.3920   6.3920   6.5196   6.5196
     6.5201   6.5201   6.6356   6.6356   6.6471   6.6471   6.7226   6.7226
     6.7448   6.7448   6.8026   6.8026   6.8669   6.8669   6.9442   6.9442
     7.0454   7.0454   7.1882   7.1882   7.2458   7.2458   7.2818   7.2818
     7.3214   7.3214   7.3344   7.3344   7.3550   7.3550   7.3922   7.3922
     7.4206   7.4206   7.4242   7.4242   7.5075   7.5075   7.5805   7.5805
     7.5856   7.5856   7.6228   7.6228   7.6467   7.6467   7.6478   7.6478
     7.6540   7.6540   7.6598   7.6598   7.7422   7.7422   7.7599   7.7599
     7.7777   7.7777   7.7948   7.7948   7.8060   7.8060   7.8238   7.8238
     7.8725   7.8725   7.9782   7.9782   7.9826   7.9826   7.9856   7.9856
     8.0037   8.0037   8.0331   8.0331   8.0507   8.0507   8.1043   8.1043
     8.1346   8.1346   8.1653   8.1653   8.2025   8.2025   8.2083   8.2083
     8.3395   8.3395   8.3700   8.3700   8.4139   8.4139   8.4152   8.4152
     8.4714   8.4714   8.5170   8.5170   8.6673   8.6673   8.6829   8.6829
     8.8957   8.8957   9.6993   9.6993  11.3698  11.3698  11.6230  11.6230
    11.9652  11.9652  12.3563  12.3563  12.9118  12.9118  13.1154  13.1154
    13.6728  13.6728  13.9076  13.9076  13.9159  13.9159  13.9520  13.9520
    14.1359  14.1359  14.2841  14.2841  14.3430  14.3430  14.6883  14.6883
    14.7517  14.7517  14.9308  14.9308  15.0185  15.0185  15.0559  15.0559
    15.1099  15.1099  15.2305  15.2305  15.2717  15.2717  15.3713  15.3713
    15.3831  15.3831  15.5547  15.5548  15.5881  15.5881  15.6000  15.6000
    15.6633  15.6635  15.6875  15.6875  15.7127  15.7127  15.7579  15.7580
    15.8544  15.8544  15.9145  15.9145  15.9525  15.9538

          k = 0.0000 0.0000-0.5000 ( 49126 PWs)   bands (ev):

   -16.7740 -16.7740 -16.7740 -16.7740 -16.7464 -16.7464 -16.7464 -16.7464
   -16.7464 -16.7464 -16.7464 -16.7464 -16.7238 -16.7238 -16.7238 -16.7238
   -14.5527 -14.5527 -14.5527 -14.5527 -14.5524 -14.5524 -14.5524 -14.5524
   -11.7472 -11.7472 -11.7472 -11.7472 -11.7434 -11.7434 -11.7434 -11.7434
   -11.4874 -11.4874 -11.4874 -11.4874  -8.9081  -8.9081  -8.9081  -8.9081
    -8.8154  -8.8154  -8.8154  -8.8154  -8.7569  -8.7569  -8.7569  -8.7569
    -8.5102  -8.5102  -8.5102  -8.5102  -8.4726  -8.4726  -8.4726  -8.4726
    -8.2582  -8.2582  -8.2582  -8.2582  -8.1694  -8.1694  -8.1694  -8.1694
    -7.6466  -7.6466  -7.6466  -7.6466  -7.6061  -7.6061  -7.6061  -7.6061
    -7.5868  -7.5868  -7.5868  -7.5868  -7.4809  -7.4809  -7.4809  -7.4809
    -7.3248  -7.3248  -7.3248  -7.3248  -7.2925  -7.2925  -7.2925  -7.2925
    -7.1664  -7.1664  -7.1664  -7.1664  -6.8560  -6.8560  -6.8560  -6.8560
    -6.8243  -6.8243  -6.8243  -6.8243  -6.7985  -6.7985  -6.7985  -6.7985
    -6.7284  -6.7284  -6.7284  -6.7284  -5.3201  -5.3201  -5.3201  -5.3201
    -5.2027  -5.2027  -5.2027  -5.2027  -5.1674  -5.1674  -5.1674  -5.1674
    -5.1492  -5.1492  -5.1492  -5.1492  -5.1458  -5.1458  -5.1458  -5.1458
    -4.7549  -4.7549  -4.7549  -4.7549  -4.5092  -4.5092  -4.5092  -4.5092
    -4.3300  -4.3300  -4.3300  -4.3300  -3.8568  -3.8568  -3.8568  -3.8568
    -3.3942  -3.3942  -3.3942  -3.3942  -3.2867  -3.2867  -3.2867  -3.2867
    -3.2805  -3.2805  -3.2805  -3.2805  -3.2765  -3.2765  -3.2765  -3.2765
    -1.4893  -1.4893  -1.4893  -1.4893  -1.4155  -1.4155  -1.4155  -1.4155
    -1.3099  -1.3099  -1.3099  -1.3099  -1.2975  -1.2975  -1.2975  -1.2975
    -1.2655  -1.2655  -1.2655  -1.2655  -1.2557  -1.2557  -1.2557  -1.2557
    -1.2270  -1.2270  -1.2270  -1.2270  -1.2119  -1.2119  -1.2119  -1.2119
    -0.3869  -0.3869  -0.3869  -0.3869   1.4921   1.4921   1.4921   1.4921
     2.1879   2.1879   2.1879   2.1879   3.5433   3.5433   3.5433   3.5433
     4.1364   4.1364   4.1364   4.1364   4.4924   4.4924   4.4924   4.4924
     4.7957   4.7957   4.7957   4.7957   5.0196   5.0196   5.0196   5.0196
     6.3674   6.3674   6.3674   6.3674   6.5469   6.5469   6.5469   6.5469
     6.6012   6.6012   6.6012   6.6012   6.6763   6.6763   6.6763   6.6763
     6.7832   6.7832   6.7832   6.7832   6.8357   6.8357   6.8357   6.8357
     6.9359   6.9359   6.9359   6.9359   7.2613   7.2613   7.2613   7.2613
     7.3224   7.3224   7.3224   7.3224   7.3856   7.3856   7.3856   7.3856
     7.3897   7.3897   7.3897   7.3897   7.5806   7.5806   7.5806   7.5806
     7.6146   7.6146   7.6146   7.6146   7.6181   7.6181   7.6181   7.6181
     7.6819   7.6819   7.6819   7.6819   7.7075   7.7075   7.7075   7.7075
     7.7906   7.7906   7.7906   7.7906   7.8087   7.8087   7.8087   7.8087
     7.9343   7.9343   7.9343   7.9343   7.9963   7.9963   7.9963   7.9963
     8.0567   8.0567   8.0567   8.0567   8.0645   8.0645   8.0645   8.0645
     8.1758   8.1758   8.1758   8.1758   8.2119   8.2119   8.2119   8.2119
     8.3395   8.3395   8.3395   8.3395   8.3467   8.3467   8.3467   8.3467
     8.4880   8.4880   8.4880   8.4880   8.6750   8.6750   8.6750   8.6750
     9.2819   9.2819   9.2819   9.2819  11.4743  11.4743  11.4743  11.4743
    12.1407  12.1407  12.1407  12.1407  13.0330  13.0330  13.0330  13.0330
    13.7777  13.7777  13.7777  13.7777  14.0987  14.0987  14.0987  14.0987
    14.1485  14.1485  14.1485  14.1485  14.4030  14.4030  14.4030  14.4030
    14.8324  14.8324  14.8324  14.8324  15.0759  15.0759  15.0759  15.0759
    15.1402  15.1402  15.1402  15.1402  15.3610  15.3610  15.3610  15.3610
    15.5492  15.5492  15.5492  15.5492  15.6321  15.6322  15.6322  15.6326
    15.6616  15.6616  15.6616  15.6616  15.7769  15.7769  15.7770  15.7770
    15.8842  15.8842  15.8843  15.8843  15.9631  15.9633

          k = 0.0000 0.0833 0.0833 ( 49090 PWs)   bands (ev):

   -16.7885 -16.7885 -16.7585 -16.7585 -16.7584 -16.7584 -16.7575 -16.7575
   -16.7352 -16.7352 -16.7345 -16.7345 -16.7344 -16.7344 -16.7140 -16.7140
   -14.5530 -14.5530 -14.5530 -14.5530 -14.5523 -14.5523 -14.5523 -14.5523
   -11.7477 -11.7477 -11.7475 -11.7475 -11.7465 -11.7465 -11.7463 -11.7463
   -11.4883 -11.4883 -11.4866 -11.4866  -9.0241  -9.0241  -8.9653  -8.9653
    -8.8323  -8.8323  -8.8081  -8.8081  -8.8015  -8.8015  -8.7585  -8.7585
    -8.7517  -8.7517  -8.4989  -8.4989  -8.3227  -8.3227  -8.3084  -8.3084
    -8.2544  -8.2544  -8.2363  -8.2363  -7.8600  -7.8600  -7.6973  -7.6973
    -7.6778  -7.6778  -7.6542  -7.6542  -7.6207  -7.6207  -7.6177  -7.6177
    -7.5921  -7.5921  -7.5210  -7.5210  -7.5038  -7.5038  -7.4639  -7.4639
    -7.3966  -7.3966  -7.3477  -7.3477  -7.3235  -7.3235  -7.2762  -7.2762
    -7.2308  -7.2308  -7.2044  -7.2044  -7.0677  -7.0677  -7.0334  -7.0334
    -7.0141  -7.0141  -6.7341  -6.7341  -6.7321  -6.7321  -6.7310  -6.7310
    -6.7298  -6.7298  -6.7290  -6.7290  -5.3903  -5.3903  -5.3025  -5.3025
    -5.2840  -5.2840  -5.2313  -5.2313  -5.2217  -5.2217  -5.1779  -5.1779
    -5.1769  -5.1769  -5.1578  -5.1578  -5.1572  -5.1572  -5.1386  -5.1386
    -5.0187  -5.0187  -4.9999  -4.9999  -4.8018  -4.8018  -4.1830  -4.1830
    -4.1813  -4.1813  -3.9482  -3.9482  -3.9272  -3.9272  -3.6608  -3.6608
    -3.4694  -3.4694  -3.3379  -3.3379  -3.3153  -3.3153  -3.3133  -3.3133
    -3.3071  -3.3071  -3.2493  -3.2493  -3.2467  -3.2467  -3.2463  -3.2463
    -1.5740  -1.5740  -1.5692  -1.5692  -1.4090  -1.4090  -1.3893  -1.3893
    -1.3849  -1.3849  -1.3273  -1.3273  -1.3227  -1.3227  -1.2513  -1.2513
    -1.2320  -1.2320  -1.2305  -1.2305  -1.2272  -1.2272  -1.2255  -1.2255
    -1.2093  -1.2093  -1.2044  -1.2044  -1.1919  -1.1919  -1.1868  -1.1868
    -0.9183  -0.9183   0.1606   0.1606   1.6080   1.6080   1.6603   1.6603
     2.2684   2.2684   3.3321   3.3321   3.3801   3.3801   3.8287   3.8287
     3.9825   3.9825   4.3738   4.3738   4.4195   4.4195   4.5413   4.5413
     4.6257   4.6257   4.8288   4.8288   4.9114   4.9114   4.9361   4.9361
     5.0757   5.0757   5.1404   5.1404   5.1661   5.1661   6.2070   6.2070
     6.4067   6.4067   6.4128   6.4128   6.4213   6.4213   6.7109   6.7109
     6.7167   6.7167   6.7290   6.7290   7.1667   7.1667   7.2876   7.2876
     7.2938   7.2938   7.3211   7.3211   7.3308   7.3308   7.3446   7.3446
     7.4216   7.4216   7.4280   7.4280   7.4475   7.4475   7.4564   7.4564
     7.4817   7.4817   7.5026   7.5026   7.5308   7.5308   7.5354   7.5354
     7.5829   7.5829   7.5945   7.5945   7.6032   7.6032   7.6087   7.6087
     7.6916   7.6916   7.7156   7.7156   7.7254   7.7254   7.7783   7.7783
     7.7884   7.7884   7.8144   7.8144   7.8905   7.8905   7.8948   7.8948
     7.8964   7.8964   7.9027   7.9027   7.9126   7.9126   7.9229   7.9229
     7.9724   7.9724   7.9769   7.9769   7.9784   7.9784   8.1003   8.1003
     8.2055   8.2055   8.2216   8.2216   8.2695   8.2695   8.2816   8.2816
     8.3640   8.3640   8.4246   8.4246   8.6244   8.6244   8.6340   8.6340
     8.6385   8.6385   8.6644   8.6644   8.6829   8.6829   8.7003   8.7003
     8.7187   8.7187  10.7104  10.7104  11.5289  11.5289  11.6007  11.6007
    12.3034  12.3034  12.4144  12.4144  13.2744  13.2744  13.3139  13.3139
    13.4475  13.4475  13.4476  13.4476  13.4497  13.4497  13.4985  13.4985
    14.0807  14.0807  14.6575  14.6575  14.8068  14.8068  14.8210  14.8210
    14.8261  14.8261  14.8459  14.8459  14.8618  14.8618  14.8655  14.8655
    14.8663  14.8663  15.1238  15.1238  15.1644  15.1644  15.3039  15.3039
    15.4525  15.4525  15.4746  15.4746  15.5029  15.5029  15.5113  15.5113
    15.6099  15.6099  15.6310  15.6310  15.6434  15.6434  15.6509  15.6509
    15.7207  15.7207  15.8096  15.8097  15.8242  15.8243

          k = 0.0000 0.0833 0.1667 ( 49066 PWs)   bands (ev):

   -16.7870 -16.7870 -16.7600 -16.7600 -16.7573 -16.7573 -16.7563 -16.7563
   -16.7364 -16.7364 -16.7356 -16.7356 -16.7334 -16.7334 -16.7150 -16.7150
   -14.5530 -14.5530 -14.5529 -14.5529 -14.5524 -14.5524 -14.5523 -14.5523
   -11.7476 -11.7476 -11.7468 -11.7468 -11.7465 -11.7465 -11.7457 -11.7457
   -11.4882 -11.4882 -11.4866 -11.4866  -9.0082  -9.0082  -8.9546  -8.9546
    -8.8255  -8.8255  -8.8072  -8.8072  -8.7854  -8.7854  -8.7575  -8.7575
    -8.7299  -8.7299  -8.4896  -8.4896  -8.3633  -8.3633  -8.3186  -8.3186
    -8.2975  -8.2975  -8.2373  -8.2373  -7.9102  -7.9102  -7.7655  -7.7655
    -7.7041  -7.7041  -7.6549  -7.6549  -7.6541  -7.6541  -7.5984  -7.5984
    -7.5934  -7.5934  -7.5282  -7.5282  -7.4941  -7.4941  -7.4362  -7.4362
    -7.4195  -7.4195  -7.3417  -7.3417  -7.3163  -7.3163  -7.2748  -7.2748
    -7.2225  -7.2225  -7.1319  -7.1319  -7.0586  -7.0586  -7.0143  -7.0143
    -6.9692  -6.9692  -6.7406  -6.7406  -6.7386  -6.7386  -6.7366  -6.7366
    -6.7307  -6.7307  -6.7296  -6.7296  -5.3702  -5.3702  -5.2999  -5.2999
    -5.2503  -5.2503  -5.2281  -5.2281  -5.1830  -5.1830  -5.1799  -5.1799
    -5.1761  -5.1761  -5.1585  -5.1585  -5.1566  -5.1566  -5.1400  -5.1400
    -5.0273  -5.0273  -4.9573  -4.9573  -4.7826  -4.7826  -4.2065  -4.2065
    -4.2026  -4.2026  -4.0010  -4.0010  -3.9276  -3.9276  -3.6935  -3.6935
    -3.4615  -3.4615  -3.3309  -3.3309  -3.3220  -3.3220  -3.3106  -3.3106
    -3.3047  -3.3047  -3.2528  -3.2528  -3.2505  -3.2505  -3.2496  -3.2496
    -1.5651  -1.5651  -1.5534  -1.5534  -1.4112  -1.4112  -1.3867  -1.3867
    -1.3767  -1.3767  -1.3226  -1.3226  -1.3134  -1.3134  -1.2623  -1.2623
    -1.2380  -1.2380  -1.2372  -1.2372  -1.2290  -1.2290  -1.2266  -1.2266
    -1.2163  -1.2163  -1.2070  -1.2070  -1.2013  -1.2013  -1.1898  -1.1898
    -0.8699  -0.8699   0.1219   0.1219   1.5273   1.5273   1.6928   1.6928
     2.1342   2.1342   3.1142   3.1142   3.3009   3.3009   3.8008   3.8008
     4.0526   4.0526   4.4221   4.4221   4.4641   4.4641   4.5689   4.5689
     4.6407   4.6407   4.9053   4.9053   4.9625   4.9625   5.0218   5.0218
     5.0983   5.0983   5.2469   5.2469   5.3387   5.3387   6.3840   6.3840
     6.4252   6.4252   6.4319   6.4319   6.4623   6.4623   6.7052   6.7052
     6.7150   6.7150   6.7400   6.7400   7.1502   7.1502   7.2607   7.2607
     7.2775   7.2775   7.3243   7.3243   7.3367   7.3367   7.3602   7.3602
     7.3801   7.3801   7.3907   7.3907   7.4161   7.4161   7.4505   7.4505
     7.4719   7.4719   7.4920   7.4920   7.5082   7.5082   7.5313   7.5313
     7.5582   7.5582   7.6015   7.6015   7.6648   7.6648   7.6910   7.6910
     7.6916   7.6916   7.7094   7.7094   7.7412   7.7412   7.7704   7.7704
     7.7844   7.7844   7.8332   7.8332   7.8529   7.8529   7.8878   7.8878
     7.8937   7.8937   7.9056   7.9056   7.9137   7.9137   7.9167   7.9167
     7.9896   7.9896   8.0032   8.0032   8.0062   8.0062   8.1037   8.1037
     8.1941   8.1941   8.2098   8.2098   8.2200   8.2200   8.2640   8.2640
     8.2753   8.2753   8.4122   8.4122   8.5930   8.5930   8.6045   8.6045
     8.6182   8.6182   8.6382   8.6382   8.6395   8.6395   8.6773   8.6773
     8.6932   8.6932  10.6271  10.6271  11.4112  11.4112  11.6279  11.6279
    12.1655  12.1655  12.4974  12.4974  13.0900  13.0900  13.2177  13.2177
    13.4795  13.4795  13.5152  13.5152  13.5223  13.5223  13.5939  13.5939
    14.1532  14.1532  14.6453  14.6453  14.7457  14.7457  14.7965  14.7965
    14.8475  14.8475  14.8813  14.8813  14.9034  14.9034  14.9284  14.9284
    14.9400  14.9400  15.0869  15.0869  15.1739  15.1739  15.2928  15.2928
    15.4604  15.4604  15.4864  15.4864  15.5253  15.5254  15.5547  15.5547
    15.5921  15.5921  15.6204  15.6204  15.6836  15.6837  15.6949  15.6950
    15.7353  15.7378  15.8071  15.8072  15.8409  15.8907

          k = 0.0000 0.0833 0.2500 ( 49071 PWs)   bands (ev):

   -16.7845 -16.7845 -16.7625 -16.7625 -16.7554 -16.7554 -16.7544 -16.7544
   -16.7383 -16.7383 -16.7375 -16.7375 -16.7317 -16.7317 -16.7167 -16.7167
   -14.5529 -14.5529 -14.5528 -14.5528 -14.5524 -14.5524 -14.5522 -14.5522
   -11.7475 -11.7475 -11.7466 -11.7466 -11.7457 -11.7457 -11.7448 -11.7448
   -11.4880 -11.4880 -11.4868 -11.4868  -8.9830  -8.9830  -8.9385  -8.9385
    -8.8195  -8.8195  -8.8076  -8.8076  -8.7626  -8.7626  -8.7585  -8.7585
    -8.6874  -8.6874  -8.4773  -8.4773  -8.4110  -8.4110  -8.3590  -8.3590
    -8.3335  -8.3335  -8.2326  -8.2326  -7.9851  -7.9851  -7.8923  -7.8923
    -7.7081  -7.7081  -7.6735  -7.6735  -7.6506  -7.6506  -7.6030  -7.6030
    -7.5683  -7.5683  -7.5293  -7.5293  -7.4954  -7.4954  -7.4689  -7.4689
    -7.3629  -7.3629  -7.3361  -7.3361  -7.3074  -7.3074  -7.2776  -7.2776
    -7.2187  -7.2187  -7.0657  -7.0657  -7.0482  -7.0482  -6.9735  -6.9735
    -6.9160  -6.9160  -6.7562  -6.7562  -6.7487  -6.7487  -6.7460  -6.7460
    -6.7308  -6.7308  -6.7298  -6.7298  -5.3475  -5.3475  -5.3000  -5.3000
    -5.2232  -5.2232  -5.2223  -5.2223  -5.1836  -5.1836  -5.1746  -5.1746
    -5.1605  -5.1605  -5.1554  -5.1554  -5.1420  -5.1420  -5.0941  -5.0941
    -5.0467  -5.0467  -4.8777  -4.8777  -4.7540  -4.7540  -4.2437  -4.2437
    -4.2417  -4.2417  -4.0870  -4.0870  -3.9216  -3.9216  -3.7403  -3.7403
    -3.4490  -3.4490  -3.3348  -3.3348  -3.3211  -3.3211  -3.3054  -3.3054
    -3.2998  -3.2998  -3.2584  -3.2584  -3.2565  -3.2565  -3.2547  -3.2547
    -1.5507  -1.5507  -1.5282  -1.5282  -1.4229  -1.4229  -1.3752  -1.3752
    -1.3628  -1.3628  -1.3143  -1.3143  -1.3007  -1.3007  -1.2869  -1.2869
    -1.2499  -1.2499  -1.2399  -1.2399  -1.2378  -1.2378  -1.2245  -1.2245
    -1.2231  -1.2231  -1.2152  -1.2152  -1.2116  -1.2116  -1.1948  -1.1948
    -0.7888  -0.7888   0.0476   0.0476   1.4362   1.4362   1.7621   1.7621
     1.9531   1.9531   2.8501   2.8501   3.2798   3.2798   3.7417   3.7417
     4.0928   4.0928   4.3668   4.3668   4.4553   4.4553   4.6277   4.6277
     4.6879   4.6879   4.9429   4.9429   4.9909   4.9909   5.1215   5.1215
     5.2311   5.2311   5.5019   5.5019   5.6730   5.6730   6.4526   6.4526
     6.4588   6.4588   6.5311   6.5311   6.5827   6.5827   6.6916   6.6916
     6.7008   6.7008   6.7634   6.7634   7.1098   7.1098   7.2363   7.2363
     7.2660   7.2660   7.2748   7.2748   7.3252   7.3252   7.3383   7.3383
     7.3433   7.3433   7.3667   7.3667   7.3907   7.3907   7.3932   7.3932
     7.4511   7.4511   7.4811   7.4811   7.5141   7.5141   7.5436   7.5436
     7.5604   7.5604   7.6079   7.6079   7.6860   7.6860   7.6960   7.6960
     7.7439   7.7439   7.7594   7.7594   7.7726   7.7726   7.7743   7.7743
     7.7808   7.7808   7.8036   7.8036   7.8547   7.8547   7.8679   7.8679
     7.8716   7.8716   7.8997   7.8997   7.9131   7.9131   7.9227   7.9227
     7.9609   7.9609   8.0144   8.0144   8.0625   8.0625   8.0680   8.0680
     8.0988   8.0988   8.1493   8.1493   8.1884   8.1884   8.2417   8.2417
     8.3837   8.3837   8.4042   8.4042   8.5426   8.5426   8.5444   8.5444
     8.5548   8.5548   8.5687   8.5687   8.6181   8.6181   8.6440   8.6440
     8.6870   8.6870  10.4304  10.4304  11.3061  11.3061  11.6936  11.6936
    11.9725  11.9725  12.6171  12.6171  12.8347  12.8347  13.1486  13.1486
    13.5319  13.5319  13.6233  13.6233  13.6392  13.6392  13.7405  13.7405
    14.1603  14.1603  14.6229  14.6229  14.6301  14.6301  14.7363  14.7363
    14.8899  14.8899  14.9257  14.9257  15.0032  15.0032  15.0213  15.0213
    15.0358  15.0358  15.0834  15.0834  15.1561  15.1561  15.2676  15.2676
    15.3983  15.3983  15.4662  15.4662  15.5181  15.5181  15.5591  15.5591
    15.5967  15.5967  15.6498  15.6498  15.7282  15.7284  15.7535  15.7539
    15.7764  15.7765  15.7917  15.7919  15.8330  15.8330

          k = 0.0000 0.0833 0.3333 ( 49077 PWs)   bands (ev):

   -16.7813 -16.7813 -16.7658 -16.7658 -16.7529 -16.7529 -16.7520 -16.7520
   -16.7408 -16.7408 -16.7400 -16.7400 -16.7295 -16.7295 -16.7189 -16.7189
   -14.5529 -14.5529 -14.5526 -14.5526 -14.5525 -14.5525 -14.5522 -14.5522
   -11.7474 -11.7474 -11.7467 -11.7467 -11.7446 -11.7446 -11.7440 -11.7440
   -11.4878 -11.4878 -11.4870 -11.4870  -8.9517  -8.9517  -8.9199  -8.9199
    -8.8155  -8.8155  -8.8084  -8.8084  -8.7601  -8.7601  -8.7442  -8.7442
    -8.6267  -8.6267  -8.4949  -8.4949  -8.4220  -8.4220  -8.4058  -8.4058
    -8.3605  -8.3605  -8.2239  -8.2239  -8.0674  -8.0674  -8.0245  -8.0245
    -7.7084  -7.7084  -7.6855  -7.6855  -7.6438  -7.6438  -7.6097  -7.6097
    -7.5484  -7.5484  -7.5280  -7.5280  -7.4999  -7.4999  -7.4907  -7.4907
    -7.3294  -7.3294  -7.3225  -7.3225  -7.2985  -7.2985  -7.2798  -7.2798
    -7.2048  -7.2048  -7.0828  -7.0828  -6.9726  -6.9726  -6.9227  -6.9227
    -6.8683  -6.8683  -6.7794  -6.7794  -6.7663  -6.7663  -6.7587  -6.7587
    -6.7307  -6.7307  -6.7300  -6.7300  -5.3291  -5.3291  -5.3012  -5.3012
    -5.2168  -5.2168  -5.1958  -5.1958  -5.1887  -5.1887  -5.1725  -5.1725
    -5.1626  -5.1626  -5.1538  -5.1538  -5.1444  -5.1444  -5.0726  -5.0726
    -4.9754  -4.9754  -4.7686  -4.7686  -4.7239  -4.7239  -4.3066  -4.3066
    -4.2864  -4.2864  -4.1899  -4.1899  -3.9111  -3.9111  -3.7911  -3.7911
    -3.4325  -3.4325  -3.3517  -3.3517  -3.3097  -3.3097  -3.2985  -3.2985
    -3.2933  -3.2933  -3.2659  -3.2659  -3.2644  -3.2644  -3.2613  -3.2613
    -1.5320  -1.5320  -1.4948  -1.4948  -1.4411  -1.4411  -1.3574  -1.3574
    -1.3465  -1.3465  -1.3238  -1.3238  -1.3003  -1.3003  -1.2837  -1.2837
    -1.2670  -1.2670  -1.2565  -1.2565  -1.2358  -1.2358  -1.2344  -1.2344
    -1.2277  -1.2277  -1.2216  -1.2216  -1.2176  -1.2176  -1.2009  -1.2009
    -0.6764  -0.6764  -0.0675  -0.0675   1.3859   1.3859   1.7653   1.7653
     1.8629   1.8629   2.5935   2.5935   3.3045   3.3045   3.6530   3.6530
     4.1218   4.1218   4.2834   4.2834   4.4863   4.4863   4.6055   4.6055
     4.7477   4.7477   4.9093   4.9093   5.0255   5.0255   5.1132   5.1132
     5.5921   5.5921   5.8739   5.8739   6.0438   6.0438   6.4877   6.4877
     6.4934   6.4934   6.6207   6.6207   6.6694   6.6694   6.6756   6.6756
     6.7367   6.7367   6.7881   6.7881   7.0371   7.0371   7.0585   7.0585
     7.2290   7.2290   7.2484   7.2484   7.2628   7.2628   7.3067   7.3067
     7.3302   7.3302   7.3439   7.3439   7.3450   7.3450   7.4339   7.4339
     7.4380   7.4380   7.4472   7.4472   7.5445   7.5445   7.5615   7.5615
     7.5966   7.5966   7.6214   7.6214   7.6333   7.6333   7.6714   7.6714
     7.6771   7.6771   7.7193   7.7193   7.7610   7.7610   7.7827   7.7827
     7.8081   7.8081   7.8110   7.8110   7.8225   7.8225   7.8300   7.8300
     7.8301   7.8301   7.9207   7.9207   7.9217   7.9217   7.9505   7.9505
     7.9600   7.9600   8.0351   8.0351   8.0722   8.0722   8.0972   8.0972
     8.1356   8.1356   8.1397   8.1397   8.1688   8.1688   8.1996   8.1996
     8.3788   8.3788   8.4510   8.4510   8.4858   8.4858   8.4899   8.4899
     8.4979   8.4979   8.5538   8.5538   8.5968   8.5968   8.6500   8.6500
     8.6802   8.6802  10.1071  10.1071  11.2825  11.2825  11.7678  11.7678
    11.7926  11.7926  12.5660  12.5660  12.7527  12.7527  13.0994  13.0994
    13.6009  13.6009  13.7650  13.7650  13.7934  13.7934  13.9330  13.9330
    14.0809  14.0809  14.4716  14.4716  14.5355  14.5355  14.7219  14.7219
    14.9431  14.9431  14.9459  14.9459  14.9818  14.9818  15.0715  15.0715
    15.1043  15.1043  15.1327  15.1327  15.1830  15.1830  15.2843  15.2843
    15.3591  15.3591  15.4235  15.4235  15.5174  15.5174  15.5839  15.5839
    15.6349  15.6349  15.7072  15.7073  15.7517  15.7518  15.7573  15.7573
    15.8028  15.8029  15.8619  15.8629  15.9130  15.9132

          k = 0.0000 0.0833 0.4167 ( 49095 PWs)   bands (ev):

   -16.7776 -16.7776 -16.7695 -16.7695 -16.7500 -16.7500 -16.7491 -16.7491
   -16.7438 -16.7438 -16.7429 -16.7429 -16.7270 -16.7270 -16.7215 -16.7215
   -14.5528 -14.5528 -14.5526 -14.5526 -14.5525 -14.5525 -14.5523 -14.5523
   -11.7472 -11.7472 -11.7469 -11.7469 -11.7438 -11.7438 -11.7434 -11.7434
   -11.4876 -11.4876 -11.4872 -11.4872  -8.9210  -8.9210  -8.9048  -8.9048
    -8.8129  -8.8129  -8.8094  -8.8094  -8.7597  -8.7597  -8.7418  -8.7418
    -8.5532  -8.5532  -8.5177  -8.5177  -8.4753  -8.4753  -8.4081  -8.4081
    -8.3464  -8.3464  -8.2092  -8.2092  -8.1490  -8.1490  -8.1369  -8.1369
    -7.7056  -7.7056  -7.6941  -7.6941  -7.6356  -7.6356  -7.6178  -7.6178
    -7.5339  -7.5339  -7.5258  -7.5258  -7.5055  -7.5055  -7.5037  -7.5037
    -7.3219  -7.3219  -7.3113  -7.3113  -7.2902  -7.2902  -7.2801  -7.2801
    -7.1747  -7.1747  -7.1074  -7.1074  -6.9082  -6.9082  -6.8727  -6.8727
    -6.8295  -6.8295  -6.8111  -6.8111  -6.7919  -6.7919  -6.7760  -6.7760
    -6.7306  -6.7306  -6.7302  -6.7302  -5.3165  -5.3165  -5.3038  -5.3038
    -5.2096  -5.2096  -5.1950  -5.1950  -5.1702  -5.1702  -5.1666  -5.1666
    -5.1650  -5.1650  -5.1518  -5.1518  -5.1470  -5.1470  -5.1028  -5.1028
    -4.8507  -4.8507  -4.7119  -4.7119  -4.6422  -4.6422  -4.3982  -4.3982
    -4.3250  -4.3250  -4.2851  -4.2851  -3.8949  -3.8949  -3.8362  -3.8362
    -3.4132  -3.4132  -3.3714  -3.3714  -3.2979  -3.2979  -3.2904  -3.2904
    -3.2856  -3.2856  -3.2753  -3.2753  -3.2729  -3.2729  -3.2690  -3.2690
    -1.5100  -1.5100  -1.4629  -1.4629  -1.4554  -1.4554  -1.3692  -1.3692
    -1.3356  -1.3356  -1.3207  -1.3207  -1.2884  -1.2884  -1.2863  -1.2863
    -1.2765  -1.2765  -1.2672  -1.2672  -1.2521  -1.2521  -1.2381  -1.2381
    -1.2326  -1.2326  -1.2235  -1.2235  -1.2177  -1.2177  -1.2072  -1.2072
    -0.5368  -0.5368  -0.2157  -0.2157   1.3979   1.3979   1.5990   1.5990
     1.9958   1.9958   2.3620   2.3620   3.3637   3.3637   3.5492   3.5492
     4.1498   4.1498   4.2240   4.2240   4.5178   4.5178   4.5788   4.5788
     4.7913   4.7913   4.8714   4.8714   5.0504   5.0504   5.0950   5.0950
     5.9900   5.9900   6.2862   6.2862   6.3939   6.3939   6.5236   6.5236
     6.5282   6.5282   6.6393   6.6393   6.6526   6.6526   6.7237   6.7237
     6.7445   6.7445   6.7949   6.7949   6.8603   6.8603   6.9412   6.9412
     7.0444   7.0444   7.1675   7.1675   7.2466   7.2466   7.2787   7.2787
     7.3136   7.3136   7.3282   7.3282   7.3499   7.3499   7.3873   7.3873
     7.4059   7.4059   7.4109   7.4109   7.4992   7.4992   7.5788   7.5788
     7.5884   7.5884   7.6404   7.6404   7.6455   7.6455   7.6484   7.6484
     7.6510   7.6510   7.6744   7.6744   7.7491   7.7491   7.7674   7.7674
     7.7857   7.7857   7.7974   7.7974   7.8082   7.8082   7.8263   7.8263
     7.8739   7.8739   7.9761   7.9761   7.9818   7.9818   7.9867   7.9867
     8.0061   8.0061   8.0331   8.0331   8.0578   8.0578   8.0982   8.0982
     8.1333   8.1333   8.1684   8.1684   8.2007   8.2007   8.2090   8.2090
     8.3217   8.3217   8.3597   8.3597   8.4151   8.4151   8.4196   8.4196
     8.4691   8.4691   8.5024   8.5024   8.6570   8.6570   8.6726   8.6726
     8.9103   8.9103   9.7096   9.7096  11.3314  11.3314  11.5830  11.5830
    11.9276  11.9276  12.3165  12.3165  12.8807  12.8807  13.0503  13.0503
    13.6913  13.6913  13.9308  13.9308  13.9490  13.9490  13.9764  13.9764
    14.1635  14.1635  14.2967  14.2967  14.3673  14.3673  14.6965  14.6965
    14.7754  14.7754  14.9697  14.9697  15.0083  15.0083  15.0497  15.0497
    15.0994  15.0994  15.2086  15.2086  15.2664  15.2664  15.3590  15.3590
    15.3908  15.3908  15.5451  15.5451  15.5968  15.5968  15.6174  15.6175
    15.6725  15.6725  15.6794  15.6794  15.7046  15.7046  15.7515  15.7515
    15.8686  15.8686  15.9082  15.9084  15.9712  15.9782

          k = 0.0000 0.0833-0.5000 ( 49092 PWs)   bands (ev):

   -16.7736 -16.7736 -16.7736 -16.7736 -16.7469 -16.7469 -16.7469 -16.7469
   -16.7460 -16.7460 -16.7460 -16.7460 -16.7242 -16.7242 -16.7242 -16.7242
   -14.5527 -14.5527 -14.5527 -14.5527 -14.5523 -14.5523 -14.5523 -14.5523
   -11.7471 -11.7471 -11.7471 -11.7471 -11.7433 -11.7433 -11.7433 -11.7433
   -11.4874 -11.4874 -11.4874 -11.4874  -8.9029  -8.9029  -8.9029  -8.9029
    -8.8109  -8.8109  -8.8109  -8.8109  -8.7524  -8.7524  -8.7524  -8.7524
    -8.5101  -8.5101  -8.5101  -8.5101  -8.4758  -8.4758  -8.4758  -8.4758
    -8.2591  -8.2591  -8.2591  -8.2591  -8.1824  -8.1824  -8.1824  -8.1824
    -7.7008  -7.7008  -7.7008  -7.7008  -7.6267  -7.6267  -7.6267  -7.6267
    -7.5259  -7.5259  -7.5259  -7.5259  -7.5088  -7.5088  -7.5088  -7.5088
    -7.3148  -7.3148  -7.3148  -7.3148  -7.2835  -7.2835  -7.2835  -7.2835
    -7.1390  -7.1390  -7.1390  -7.1390  -6.8565  -6.8565  -6.8565  -6.8565
    -6.8254  -6.8254  -6.8254  -6.8254  -6.7991  -6.7991  -6.7991  -6.7991
    -6.7304  -6.7304  -6.7304  -6.7304  -5.3085  -5.3085  -5.3085  -5.3085
    -5.2021  -5.2021  -5.2021  -5.2021  -5.1676  -5.1676  -5.1676  -5.1676
    -5.1495  -5.1495  -5.1495  -5.1495  -5.1349  -5.1349  -5.1349  -5.1349
    -4.7515  -4.7515  -4.7515  -4.7515  -4.5138  -4.5138  -4.5138  -4.5138
    -4.3342  -4.3342  -4.3342  -4.3342  -3.8707  -3.8707  -3.8707  -3.8707
    -3.3923  -3.3923  -3.3923  -3.3923  -3.2862  -3.2862  -3.2862  -3.2862
    -3.2817  -3.2817  -3.2817  -3.2817  -3.2773  -3.2773  -3.2773  -3.2773
    -1.4865  -1.4865  -1.4865  -1.4865  -1.4124  -1.4124  -1.4124  -1.4124
    -1.3121  -1.3121  -1.3121  -1.3121  -1.2986  -1.2986  -1.2986  -1.2986
    -1.2698  -1.2698  -1.2698  -1.2698  -1.2515  -1.2515  -1.2515  -1.2515
    -1.2285  -1.2285  -1.2285  -1.2285  -1.2129  -1.2129  -1.2129  -1.2129
    -0.3785  -0.3785  -0.3785  -0.3785   1.4722   1.4722   1.4722   1.4722
     2.1621   2.1621   2.1621   2.1621   3.4484   3.4484   3.4484   3.4484
     4.1820   4.1820   4.1820   4.1820   4.5491   4.5491   4.5491   4.5491
     4.8318   4.8318   4.8318   4.8318   5.0734   5.0734   5.0734   5.0734
     6.3693   6.3693   6.3693   6.3693   6.5501   6.5501   6.5501   6.5501
     6.6062   6.6062   6.6062   6.6062   6.6670   6.6670   6.6670   6.6670
     6.7848   6.7848   6.7848   6.7848   6.8356   6.8356   6.8356   6.8356
     6.9242   6.9242   6.9242   6.9242   7.2583   7.2583   7.2583   7.2583
     7.3147   7.3147   7.3147   7.3147   7.3756   7.3756   7.3756   7.3756
     7.3828   7.3828   7.3828   7.3828   7.5669   7.5669   7.5669   7.5669
     7.6135   7.6135   7.6135   7.6135   7.6229   7.6229   7.6229   7.6229
     7.6966   7.6966   7.6966   7.6966   7.7228   7.7228   7.7228   7.7228
     7.7931   7.7931   7.7931   7.7931   7.8102   7.8102   7.8102   7.8102
     7.9331   7.9331   7.9331   7.9331   8.0021   8.0021   8.0021   8.0021
     8.0538   8.0538   8.0538   8.0538   8.0706   8.0706   8.0706   8.0706
     8.1654   8.1654   8.1654   8.1654   8.2060   8.2060   8.2060   8.2060
     8.3415   8.3415   8.3415   8.3415   8.3502   8.3502   8.3502   8.3502
     8.4748   8.4748   8.4748   8.4748   8.6648   8.6648   8.6648   8.6648
     9.2951   9.2951   9.2951   9.2951  11.4347  11.4347  11.4347  11.4347
    12.1020  12.1020  12.1020  12.1020  12.9814  12.9814  12.9814  12.9814
    13.8098  13.8098  13.8098  13.8098  14.1125  14.1125  14.1125  14.1125
    14.1720  14.1720  14.1720  14.1720  14.4238  14.4238  14.4238  14.4238
    14.8633  14.8633  14.8633  14.8633  15.0655  15.0655  15.0655  15.0655
    15.1269  15.1269  15.1269  15.1269  15.3608  15.3608  15.3608  15.3608
    15.5347  15.5347  15.5347  15.5348  15.6459  15.6459  15.6460  15.6460
    15.6558  15.6559  15.6559  15.6559  15.7747  15.7747  15.7748  15.7748
    15.8421  15.8421  15.8422  15.8423  15.9865  15.9871

          k = 0.0000 0.1667 0.1667 ( 49098 PWs)   bands (ev):

   -16.7855 -16.7855 -16.7588 -16.7588 -16.7588 -16.7588 -16.7551 -16.7551
   -16.7377 -16.7377 -16.7346 -16.7346 -16.7345 -16.7345 -16.7161 -16.7161
   -14.5530 -14.5530 -14.5528 -14.5528 -14.5524 -14.5524 -14.5522 -14.5522
   -11.7473 -11.7473 -11.7463 -11.7463 -11.7463 -11.7463 -11.7453 -11.7453
   -11.4881 -11.4881 -11.4867 -11.4867  -8.9923  -8.9923  -8.9436  -8.9436
    -8.8177  -8.8177  -8.8007  -8.8007  -8.7737  -8.7737  -8.7447  -8.7447
    -8.7217  -8.7217  -8.4811  -8.4811  -8.3846  -8.3846  -8.3429  -8.3429
    -8.3153  -8.3153  -8.2614  -8.2614  -7.9505  -7.9505  -7.8016  -7.8016
    -7.7383  -7.7383  -7.7328  -7.7328  -7.6547  -7.6547  -7.6057  -7.6057
    -7.5537  -7.5537  -7.5508  -7.5508  -7.4876  -7.4876  -7.4469  -7.4469
    -7.4046  -7.4046  -7.3358  -7.3358  -7.2923  -7.2923  -7.2751  -7.2751
    -7.1575  -7.1575  -7.1134  -7.1134  -7.0330  -7.0330  -6.9958  -6.9958
    -6.9496  -6.9496  -6.7460  -6.7460  -6.7440  -6.7440  -6.7375  -6.7375
    -6.7356  -6.7356  -6.7333  -6.7333  -5.3478  -5.3478  -5.2870  -5.2870
    -5.2251  -5.2251  -5.2082  -5.2082  -5.1805  -5.1805  -5.1765  -5.1765
    -5.1635  -5.1635  -5.1589  -5.1589  -5.1562  -5.1562  -5.1413  -5.1413
    -5.0099  -5.0099  -4.9432  -4.9432  -4.7647  -4.7647  -4.2281  -4.2281
    -4.2235  -4.2235  -4.0307  -4.0307  -3.9506  -3.9506  -3.7270  -3.7270
    -3.4539  -3.4539  -3.3247  -3.3247  -3.3202  -3.3202  -3.3162  -3.3162
    -3.3026  -3.3026  -3.2562  -3.2562  -3.2539  -3.2539  -3.2527  -3.2527
    -1.5564  -1.5564  -1.5381  -1.5381  -1.4075  -1.4075  -1.3889  -1.3889
    -1.3703  -1.3703  -1.3202  -1.3202  -1.3032  -1.3032  -1.2654  -1.2654
    -1.2472  -1.2472  -1.2471  -1.2471  -1.2313  -1.2313  -1.2272  -1.2272
    -1.2243  -1.2243  -1.2115  -1.2115  -1.2074  -1.2074  -1.1913  -1.1913
    -0.8229  -0.8229   0.0911   0.0911   1.4810   1.4810   1.6829   1.6829
     2.0196   2.0196   2.9970   2.9970   3.1365   3.1365   3.7337   3.7337
     4.1266   4.1266   4.3928   4.3928   4.5567   4.5567   4.6353   4.6353
     4.7259   4.7259   4.9615   4.9615   4.9990   4.9990   5.1331   5.1331
     5.1985   5.1985   5.3284   5.3284   5.4428   5.4428   6.4413   6.4413
     6.4609   6.4609   6.4885   6.4885   6.4955   6.4955   6.7031   6.7031
     6.7245   6.7245   6.7346   6.7346   7.1332   7.1332   7.2370   7.2370
     7.2695   7.2695   7.3221   7.3221   7.3330   7.3330   7.3483   7.3483
     7.3676   7.3676   7.3718   7.3718   7.3793   7.3793   7.4202   7.4202
     7.4462   7.4462   7.4627   7.4627   7.4991   7.4991   7.5535   7.5535
     7.6194   7.6194   7.6464   7.6464   7.6781   7.6781   7.6909   7.6909
     7.6975   7.6975   7.7074   7.7074   7.7506   7.7506   7.7668   7.7668
[...]
     6.5925   6.5925   6.5925   6.5925   6.6350   6.6350   6.6350   6.6350
     6.6536   6.6536   6.6536   6.6536   6.6574   6.6574   6.6574   6.6574
     6.7745   6.7745   6.7745   6.7745   6.9234   6.9234   6.9234   6.9234
     7.2257   7.2257   7.2257   7.2257   7.2976   7.2976   7.2976   7.2976
     7.3143   7.3143   7.3143   7.3143   7.3208   7.3208   7.3208   7.3208
     7.3810   7.3810   7.3810   7.3810   7.4226   7.4226   7.4226   7.4226
     7.4967   7.4967   7.4967   7.4967   7.5378   7.5378   7.5378   7.5378
     8.0831   8.0831   8.0831   8.0831   8.1095   8.1095   8.1095   8.1095
     8.1159   8.1159   8.1159   8.1159   8.1358   8.1358   8.1358   8.1358
     8.2234   8.2234   8.2234   8.2234   8.2600   8.2600   8.2600   8.2600
     8.2835   8.2835   8.2835   8.2835   8.3016   8.3016   8.3016   8.3016
     8.3147   8.3147   8.3147   8.3147   8.3327   8.3327   8.3327   8.3327
     8.3795   8.3795   8.3795   8.3795   8.4344   8.4344   8.4344   8.4344
     9.7774   9.7774   9.7774   9.7774  10.5864  10.5864  10.5864  10.5864
    11.1930  11.1930  11.1930  11.1930  11.5210  11.5210  11.5210  11.5210
    14.5888  14.5888  14.5888  14.5888  14.6948  14.6948  14.6948  14.6948
    14.7514  14.7514  14.7514  14.7514  14.8581  14.8581  14.8581  14.8581
    14.9017  14.9017  14.9017  14.9017  14.9150  14.9150  14.9150  14.9150
    14.9669  14.9669  14.9669  14.9669  15.0189  15.0189  15.0189  15.0189
    15.4293  15.4293  15.4293  15.4293  15.6329  15.6330  15.6330  15.6330
    15.6770  15.6771  15.6771  15.6771  15.7065  15.7066  15.7068  15.7069
    15.7546  15.7547  15.7549  15.7551  15.9172  15.9213

          k = 0.4167 0.4167 0.4167 ( 49055 PWs)   bands (ev):

   -16.7577 -16.7577 -16.7510 -16.7510 -16.7508 -16.7508 -16.7508 -16.7508
   -16.7444 -16.7444 -16.7444 -16.7444 -16.7444 -16.7444 -16.7382 -16.7382
   -14.5523 -14.5523 -14.5523 -14.5523 -14.5521 -14.5521 -14.5521 -14.5521
   -11.7420 -11.7420 -11.7419 -11.7419 -11.7418 -11.7418 -11.7417 -11.7417
   -11.4874 -11.4874 -11.4874 -11.4874  -8.6947  -8.6947  -8.6838  -8.6838
    -8.6267  -8.6267  -8.6216  -8.6216  -8.6204  -8.6204  -8.6161  -8.6161
    -8.6018  -8.6018  -8.5444  -8.5444  -8.5387  -8.5387  -8.4573  -8.4573
    -8.4526  -8.4526  -8.4140  -8.4140  -8.3867  -8.3867  -8.3792  -8.3792
    -8.1010  -8.1010  -8.0440  -8.0440  -8.0412  -8.0412  -7.9476  -7.9476
    -7.9469  -7.9469  -7.9051  -7.9051  -7.0634  -7.0634  -7.0621  -7.0621
    -7.0602  -7.0602  -7.0348  -7.0348  -6.9826  -6.9826  -6.9388  -6.9388
    -6.9325  -6.9325  -6.9149  -6.9149  -6.9142  -6.9142  -6.8878  -6.8878
    -6.8878  -6.8878  -6.8635  -6.8635  -6.8502  -6.8502  -6.8463  -6.8463
    -6.8257  -6.8257  -6.8166  -6.8166  -5.1840  -5.1840  -5.1777  -5.1777
    -5.1776  -5.1776  -5.1685  -5.1685  -5.1681  -5.1681  -5.1644  -5.1644
    -4.8180  -4.8180  -4.7870  -4.7870  -4.7863  -4.7863  -4.7785  -4.7785
    -4.7544  -4.7544  -4.7518  -4.7518  -4.6307  -4.6307  -4.5625  -4.5625
    -4.5558  -4.5558  -4.4437  -4.4437  -4.4365  -4.4365  -4.3593  -4.3593
    -3.3374  -3.3374  -3.3186  -3.3186  -3.3132  -3.3132  -3.3098  -3.3098
    -3.2999  -3.2999  -3.2991  -3.2991  -3.2950  -3.2950  -3.2905  -3.2905
    -1.4151  -1.4151  -1.3936  -1.3936  -1.3797  -1.3797  -1.3652  -1.3652
    -1.3561  -1.3561  -1.3437  -1.3437  -1.3312  -1.3312  -1.3297  -1.3297
    -1.3014  -1.3014  -1.2719  -1.2719  -1.2631  -1.2631  -1.2466  -1.2466
    -1.2429  -1.2429  -1.2276  -1.2276  -1.2167  -1.2167  -1.2133  -1.2133
    -0.2007  -0.2007  -0.1683  -0.1683   1.3203   1.3203   1.4198   1.4198
     1.4467   1.4467   1.7639   1.7639   1.7955   1.7955   1.9829   1.9829
     5.3438   5.3438   5.3867   5.3867   5.5602   5.5602   5.7459   5.7459
     5.7711   5.7711   5.8998   5.8998   6.0547   6.0547   6.0806   6.0806
     6.1274   6.1274   6.2846   6.2846   6.3046   6.3046   6.4495   6.4495
     6.5416   6.5416   6.5773   6.5773   6.6099   6.6099   6.6248   6.6248
     6.6446   6.6446   6.6494   6.6494   6.6502   6.6502   6.6716   6.6716
     6.7588   6.7588   6.8095   6.8095   6.8991   6.8991   6.9184   6.9184
     7.2198   7.2198   7.2645   7.2645   7.2760   7.2760   7.2990   7.2990
     7.3000   7.3000   7.3026   7.3026   7.3399   7.3399   7.3513   7.3513
     7.3668   7.3668   7.3726   7.3726   7.3736   7.3736   7.3986   7.3986
     7.5114   7.5114   7.5121   7.5121   7.5131   7.5131   7.5136   7.5136
     8.0934   8.0934   8.0988   8.0988   8.1158   8.1158   8.1393   8.1393
     8.1496   8.1496   8.1504   8.1504   8.1780   8.1780   8.1818   8.1818
     8.1879   8.1879   8.2128   8.2128   8.2206   8.2206   8.2252   8.2252
     8.2561   8.2561   8.2819   8.2819   8.3029   8.3029   8.3030   8.3030
     8.3103   8.3103   8.3449   8.3449   8.3587   8.3587   8.3592   8.3592
     8.3673   8.3673   8.3789   8.3789   8.4297   8.4297   8.4576   8.4576
     9.6757   9.6757   9.8313   9.8313  10.7009  10.7009  10.8055  10.8055
    10.8593  10.8593  11.2633  11.2633  11.3252  11.3252  11.5058  11.5058
    14.5737  14.5737  14.6139  14.6139  14.6288  14.6288  14.7099  14.7099
    14.7743  14.7743  14.8167  14.8167  14.8628  14.8628  14.8656  14.8656
    14.8758  14.8758  14.9172  14.9172  14.9322  14.9322  14.9344  14.9344
    14.9607  14.9607  14.9748  14.9748  14.9799  14.9799  15.0974  15.0974
    15.3895  15.3895  15.4190  15.4190  15.6288  15.6288  15.6289  15.6291
    15.6441  15.6446  15.6903  15.6905  15.6944  15.6945  15.7009  15.7010
    15.7377  15.7379  15.7630  15.7637  15.9157  15.9221

          k = 0.4167 0.4167-0.5000 ( 49074 PWs)   bands (ev):

   -16.7543 -16.7543 -16.7543 -16.7543 -16.7477 -16.7477 -16.7477 -16.7477
   -16.7476 -16.7476 -16.7476 -16.7476 -16.7413 -16.7413 -16.7413 -16.7413
   -14.5523 -14.5523 -14.5523 -14.5523 -14.5521 -14.5521 -14.5521 -14.5521
   -11.7419 -11.7419 -11.7419 -11.7419 -11.7416 -11.7416 -11.7416 -11.7416
   -11.4874 -11.4874 -11.4874 -11.4874  -8.6682  -8.6682  -8.6682  -8.6682
    -8.6236  -8.6236  -8.6236  -8.6236  -8.6165  -8.6165  -8.6165  -8.6165
    -8.5651  -8.5651  -8.5651  -8.5651  -8.5035  -8.5035  -8.5035  -8.5035
    -8.4280  -8.4280  -8.4280  -8.4280  -8.4131  -8.4131  -8.4131  -8.4131
    -8.0810  -8.0810  -8.0810  -8.0810  -8.0061  -8.0061  -8.0061  -8.0061
    -7.9361  -7.9361  -7.9361  -7.9361  -7.0560  -7.0560  -7.0560  -7.0560
    -7.0135  -7.0135  -7.0135  -7.0135  -6.9580  -6.9580  -6.9580  -6.9580
    -6.9206  -6.9206  -6.9206  -6.9206  -6.9039  -6.9039  -6.9039  -6.9039
    -6.8780  -6.8780  -6.8780  -6.8780  -6.8562  -6.8562  -6.8562  -6.8562
    -6.8265  -6.8265  -6.8265  -6.8265  -5.1804  -5.1804  -5.1804  -5.1804
    -5.1730  -5.1730  -5.1730  -5.1730  -5.1668  -5.1668  -5.1668  -5.1668
    -4.7911  -4.7911  -4.7911  -4.7911  -4.7686  -4.7686  -4.7686  -4.7686
    -4.6669  -4.6669  -4.6669  -4.6669  -4.6483  -4.6483  -4.6483  -4.6483
    -4.5391  -4.5391  -4.5391  -4.5391  -4.4156  -4.4156  -4.4156  -4.4156
    -3.3262  -3.3262  -3.3262  -3.3262  -3.3075  -3.3075  -3.3075  -3.3075
    -3.3041  -3.3041  -3.3041  -3.3041  -3.2938  -3.2938  -3.2938  -3.2938
    -1.4012  -1.4012  -1.4012  -1.4012  -1.3747  -1.3747  -1.3747  -1.3747
    -1.3508  -1.3508  -1.3508  -1.3508  -1.3343  -1.3343  -1.3343  -1.3343
    -1.2817  -1.2817  -1.2817  -1.2817  -1.2541  -1.2541  -1.2541  -1.2541
    -1.2342  -1.2342  -1.2342  -1.2342  -1.2164  -1.2164  -1.2164  -1.2164
    -0.1786  -0.1786  -0.1786  -0.1786   1.3615   1.3615   1.3615   1.3615
     1.5926   1.5926   1.5926   1.5926   1.8471   1.8471   1.8471   1.8471
     5.4207   5.4207   5.4207   5.4207   5.6931   5.6931   5.6931   5.6931
     5.9192   5.9192   5.9192   5.9192   6.0803   6.0803   6.0803   6.0803
     6.2282   6.2282   6.2282   6.2282   6.3513   6.3513   6.3513   6.3513
     6.5366   6.5366   6.5366   6.5366   6.6069   6.6069   6.6069   6.6069
     6.6322   6.6322   6.6322   6.6322   6.6545   6.6545   6.6545   6.6545
     6.7625   6.7625   6.7625   6.7625   6.8546   6.8546   6.8546   6.8546
     7.2445   7.2445   7.2445   7.2445   7.2962   7.2962   7.2962   7.2962
     7.3195   7.3195   7.3195   7.3195   7.3210   7.3210   7.3210   7.3210
     7.3585   7.3585   7.3585   7.3585   7.3762   7.3762   7.3762   7.3762
     7.5010   7.5010   7.5010   7.5010   7.5122   7.5122   7.5122   7.5122
     8.1202   8.1202   8.1202   8.1202   8.1330   8.1330   8.1330   8.1330
     8.1767   8.1767   8.1767   8.1767   8.1832   8.1832   8.1832   8.1832
     8.2039   8.2039   8.2039   8.2039   8.2457   8.2457   8.2457   8.2457
     8.2828   8.2828   8.2828   8.2828   8.3140   8.3140   8.3140   8.3140
     8.3292   8.3292   8.3292   8.3292   8.3439   8.3439   8.3439   8.3439
     8.3657   8.3657   8.3657   8.3657   8.4293   8.4293   8.4293   8.4293
     9.7708   9.7708   9.7708   9.7708  10.7149  10.7149  10.7149  10.7149
    11.0378  11.0378  11.0378  11.0378  11.3535  11.3535  11.3535  11.3535
    14.6236  14.6236  14.6236  14.6236  14.7233  14.7233  14.7233  14.7233
    14.7902  14.7902  14.7902  14.7902  14.8666  14.8666  14.8666  14.8666
    14.9030  14.9030  14.9030  14.9030  14.9284  14.9284  14.9284  14.9284
    14.9442  14.9442  14.9442  14.9442  15.0305  15.0305  15.0305  15.0305
    15.4114  15.4114  15.4114  15.4114  15.6211  15.6211  15.6211  15.6211
    15.6521  15.6521  15.6521  15.6521  15.7035  15.7036  15.7036  15.7037
    15.7250  15.7250  15.7250  15.7250  15.9137  15.9184

          k = 0.4167-0.5000-0.5000 ( 49068 PWs)   bands (ev):

   -16.7511 -16.7511 -16.7511 -16.7511 -16.7509 -16.7509 -16.7509 -16.7509
   -16.7445 -16.7445 -16.7445 -16.7445 -16.7445 -16.7445 -16.7445 -16.7445
   -14.5522 -14.5522 -14.5522 -14.5522 -14.5521 -14.5521 -14.5521 -14.5521
   -11.7417 -11.7417 -11.7417 -11.7417 -11.7414 -11.7414 -11.7414 -11.7414
   -11.4874 -11.4874 -11.4874 -11.4874  -8.6410  -8.6410  -8.6410  -8.6410
    -8.6280  -8.6280  -8.6280  -8.6280  -8.6074  -8.6074  -8.6074  -8.6074
    -8.5502  -8.5502  -8.5502  -8.5502  -8.5021  -8.5021  -8.5021  -8.5021
    -8.4516  -8.4516  -8.4516  -8.4516  -8.4368  -8.4368  -8.4368  -8.4368
    -8.0698  -8.0698  -8.0698  -8.0698  -8.0214  -8.0214  -8.0214  -8.0214
    -7.9621  -7.9621  -7.9621  -7.9621  -7.0358  -7.0358  -7.0358  -7.0358
    -6.9746  -6.9746  -6.9746  -6.9746  -6.9546  -6.9546  -6.9546  -6.9546
    -6.9383  -6.9383  -6.9383  -6.9383  -6.8996  -6.8996  -6.8996  -6.8996
    -6.8885  -6.8885  -6.8885  -6.8885  -6.8581  -6.8581  -6.8581  -6.8581
    -6.8354  -6.8354  -6.8354  -6.8354  -5.1782  -5.1782  -5.1782  -5.1782
    -5.1734  -5.1734  -5.1734  -5.1734  -5.1686  -5.1686  -5.1686  -5.1686
    -4.7790  -4.7790  -4.7790  -4.7790  -4.6792  -4.6792  -4.6792  -4.6792
    -4.6643  -4.6643  -4.6643  -4.6643  -4.6510  -4.6510  -4.6510  -4.6510
    -4.5931  -4.5931  -4.5931  -4.5931  -4.4602  -4.4602  -4.4602  -4.4602
    -3.3187  -3.3187  -3.3187  -3.3187  -3.3134  -3.3134  -3.3134  -3.3134
    -3.3013  -3.3013  -3.3013  -3.3013  -3.2979  -3.2979  -3.2979  -3.2979
    -1.3940  -1.3940  -1.3940  -1.3940  -1.3801  -1.3801  -1.3801  -1.3801
    -1.3511  -1.3511  -1.3511  -1.3511  -1.3397  -1.3397  -1.3397  -1.3397
    -1.2701  -1.2701  -1.2701  -1.2701  -1.2586  -1.2586  -1.2586  -1.2586
    -1.2321  -1.2321  -1.2321  -1.2321  -1.2202  -1.2202  -1.2202  -1.2202
    -0.1732  -0.1732  -0.1732  -0.1732   1.3978   1.3978   1.3978   1.3978
     1.5930   1.5930   1.5930   1.5930   1.7475   1.7475   1.7475   1.7475
     5.4998   5.4998   5.4998   5.4998   5.7706   5.7706   5.7706   5.7706
     5.9671   5.9671   5.9671   5.9671   6.1313   6.1313   6.1313   6.1313
     6.1821   6.1821   6.1821   6.1821   6.3180   6.3180   6.3180   6.3180
     6.5341   6.5341   6.5341   6.5341   6.5925   6.5925   6.5925   6.5925
     6.6273   6.6273   6.6273   6.6273   6.6453   6.6453   6.6453   6.6453
     6.7355   6.7355   6.7355   6.7355   6.7933   6.7933   6.7933   6.7933
     7.2600   7.2600   7.2600   7.2600   7.3045   7.3045   7.3045   7.3045
     7.3116   7.3116   7.3116   7.3116   7.3227   7.3227   7.3227   7.3227
     7.3400   7.3400   7.3400   7.3400   7.3610   7.3610   7.3610   7.3610
     7.4950   7.4950   7.4950   7.4950   7.5067   7.5067   7.5067   7.5067
     8.1411   8.1411   8.1411   8.1411   8.1671   8.1671   8.1671   8.1671
     8.1726   8.1726   8.1726   8.1726   8.1876   8.1876   8.1876   8.1876
     8.2308   8.2308   8.2308   8.2308   8.2575   8.2575   8.2575   8.2575
     8.3015   8.3015   8.3015   8.3015   8.3112   8.3112   8.3112   8.3112
     8.3222   8.3222   8.3222   8.3222   8.3325   8.3325   8.3325   8.3325
     8.3753   8.3753   8.3753   8.3753   8.4077   8.4077   8.4077   8.4077
     9.7841   9.7841   9.7841   9.7841  10.7403  10.7403  10.7403  10.7403
    11.0188  11.0188  11.0188  11.0188  11.2243  11.2243  11.2243  11.2243
    14.6460  14.6460  14.6460  14.6460  14.7738  14.7738  14.7738  14.7738
    14.8075  14.8075  14.8075  14.8075  14.8800  14.8800  14.8801  14.8801
    14.8954  14.8954  14.8954  14.8954  14.9107  14.9107  14.9107  14.9107
    14.9591  14.9592  14.9592  14.9592  14.9924  14.9924  14.9924  14.9924
    15.4115  15.4115  15.4115  15.4115  15.6122  15.6122  15.6123  15.6123
    15.6636  15.6636  15.6636  15.6637  15.6809  15.6810  15.6811  15.6812
    15.7063  15.7063  15.7063  15.7064  15.9298  15.9424

          k =-0.5000-0.5000-0.5000 ( 49040 PWs)   bands (ev):

   -16.7479 -16.7479 -16.7479 -16.7479 -16.7477 -16.7477 -16.7477 -16.7477
   -16.7477 -16.7477 -16.7477 -16.7477 -16.7476 -16.7476 -16.7476 -16.7476
   -14.5522 -14.5522 -14.5522 -14.5522 -14.5522 -14.5522 -14.5522 -14.5522
   -11.7415 -11.7415 -11.7415 -11.7415 -11.7415 -11.7415 -11.7415 -11.7415
   -11.4874 -11.4874 -11.4874 -11.4874  -8.6215  -8.6215  -8.6215  -8.6215
    -8.6082  -8.6082  -8.6082  -8.6082  -8.6082  -8.6082  -8.6082  -8.6082
    -8.5062  -8.5062  -8.5062  -8.5062  -8.5007  -8.5007  -8.5007  -8.5007
    -8.5007  -8.5007  -8.5007  -8.5007  -8.4714  -8.4714  -8.4714  -8.4714
    -8.0287  -8.0287  -8.0287  -8.0287  -8.0272  -8.0272  -8.0272  -8.0272
    -8.0272  -8.0272  -8.0272  -8.0272  -6.9690  -6.9690  -6.9690  -6.9690
    -6.9637  -6.9637  -6.9637  -6.9637  -6.9637  -6.9637  -6.9637  -6.9637
    -6.9356  -6.9356  -6.9356  -6.9356  -6.9356  -6.9356  -6.9356  -6.9356
    -6.8825  -6.8825  -6.8825  -6.8825  -6.8532  -6.8532  -6.8532  -6.8532
    -6.8532  -6.8532  -6.8532  -6.8532  -5.1735  -5.1735  -5.1735  -5.1735
    -5.1735  -5.1735  -5.1735  -5.1735  -5.1732  -5.1732  -5.1732  -5.1732
    -4.6874  -4.6874  -4.6874  -4.6874  -4.6788  -4.6788  -4.6788  -4.6788
    -4.6788  -4.6788  -4.6788  -4.6788  -4.5960  -4.5960  -4.5960  -4.5960
    -4.5916  -4.5916  -4.5916  -4.5916  -4.5916  -4.5916  -4.5916  -4.5916
    -3.3123  -3.3123  -3.3123  -3.3123  -3.3080  -3.3080  -3.3080  -3.3080
    -3.3080  -3.3080  -3.3080  -3.3080  -3.3029  -3.3029  -3.3029  -3.3029
    -1.3852  -1.3852  -1.3852  -1.3852  -1.3852  -1.3852  -1.3852  -1.3852
    -1.3494  -1.3494  -1.3494  -1.3494  -1.3494  -1.3494  -1.3494  -1.3494
    -1.2595  -1.2595  -1.2595  -1.2595  -1.2573  -1.2573  -1.2573  -1.2573
    -1.2292  -1.2292  -1.2292  -1.2292  -1.2292  -1.2292  -1.2292  -1.2292
    -0.1685  -0.1685  -0.1685  -0.1685   1.5293   1.5293   1.5293   1.5293
     1.5735   1.5735   1.5735   1.5735   1.5735   1.5735   1.5735   1.5735
     5.6359   5.6359   5.6359   5.6359   5.8908   5.8908   5.8908   5.8908
     5.8908   5.8908   5.8908   5.8908   6.2024   6.2024   6.2024   6.2024
     6.2024   6.2024   6.2024   6.2024   6.2283   6.2283   6.2283   6.2283
     6.5540   6.5540   6.5540   6.5540   6.5540   6.5540   6.5540   6.5540
     6.6401   6.6401   6.6401   6.6401   6.6470   6.6470   6.6470   6.6470
     6.6470   6.6470   6.6470   6.6470   6.7586   6.7586   6.7586   6.7586
     7.2990   7.2990   7.2990   7.2990   7.3050   7.3050   7.3050   7.3050
     7.3050   7.3050   7.3050   7.3050   7.3197   7.3197   7.3197   7.3197
     7.3278   7.3278   7.3278   7.3278   7.3278   7.3278   7.3278   7.3278
     7.4953   7.4953   7.4953   7.4953   7.4953   7.4953   7.4953   7.4953
     8.1735   8.1735   8.1735   8.1735   8.1862   8.1862   8.1862   8.1862
     8.1862   8.1862   8.1862   8.1862   8.2110   8.2110   8.2110   8.2110
     8.2439   8.2439   8.2439   8.2439   8.2439   8.2439   8.2439   8.2439
     8.3041   8.3041   8.3041   8.3041   8.3041   8.3041   8.3041   8.3041
     8.3341   8.3341   8.3341   8.3341   8.3584   8.3584   8.3584   8.3584
     8.3584   8.3584   8.3584   8.3584   8.3867   8.3867   8.3867   8.3867
     9.7872   9.7872   9.7872   9.7872  10.8986  10.8986  10.8986  10.8986
    10.9848  10.9848  10.9848  10.9848  10.9848  10.9848  10.9848  10.9848
    14.6653  14.6653  14.6653  14.6653  14.8137  14.8137  14.8137  14.8137
    14.8137  14.8137  14.8137  14.8137  14.8950  14.8950  14.8950  14.8950
    14.8950  14.8950  14.8950  14.8950  14.9435  14.9435  14.9435  14.9435
    14.9435  14.9435  14.9435  14.9435  14.9583  14.9583  14.9583  14.9583
    15.4060  15.4061  15.4061  15.4061  15.5957  15.5958  15.5960  15.5964
    15.6702  15.6702  15.6704  15.6705  15.6706  15.6707  15.6710  15.6710
    15.6833  15.6833  15.6834  15.6834  15.9400  15.9403

     the Fermi energy is     9.5890 ev

!    total energy              =   -2401.24661416 Ry
     estimated scf accuracy    <          4.2E-12 Ry
     smearing contrib. (-TS)   =       0.00005750 Ry
     internal energy E=F+TS    =   -2401.24667167 Ry

     The total energy is F=E-TS. E is the sum of the following terms:
     one-electron contribution =    -609.79347423 Ry
     hartree contribution      =     537.91264002 Ry
     xc contribution           =    -601.15895860 Ry
     ewald contribution        =   -1728.20687885 Ry

     convergence has been achieved in  29 iterations

     Writing all to output data dir ./out/bpbo.save/ :
     XML data file, charge density, pseudopotentials, collected wavefunctions

     init_run     :    339.78s CPU    179.22s WALL (       1 calls)
     electrons    :  41854.70s CPU  22934.13s WALL (       1 calls)

     Called by init_run:
     wfcinit      :    335.94s CPU    175.79s WALL (       1 calls)
     potinit      :      1.07s CPU      0.66s WALL (       1 calls)
     hinit0       :      0.51s CPU      0.66s WALL (       1 calls)

     Called by electrons:
     c_bands      :  36494.42s CPU  19919.29s WALL (      29 calls)
     sum_band     :   5135.69s CPU   2754.09s WALL (      29 calls)
     v_of_rho     :     49.61s CPU     57.08s WALL (      30 calls)
     newd         :     55.77s CPU     49.68s WALL (      30 calls)
     mix_rho      :     18.99s CPU     11.73s WALL (      29 calls)

     Called by c_bands:
     init_us_2    :     77.90s CPU     78.19s WALL (     826 calls)
     cegterg      :  34883.15s CPU  17881.02s WALL (     431 calls)

     Called by *egterg:
     cdiaghg      :    967.37s CPU    529.75s WALL (    3254 calls)
     h_psi        :  22634.42s CPU  11559.43s WALL (    3268 calls)
     s_psi        :   2360.11s CPU   1215.24s WALL (    3268 calls)
     g_psi        :     60.53s CPU     30.41s WALL (    2823 calls)

     Called by h_psi:
     h_psi:calbec :   2309.48s CPU   1170.46s WALL (    3268 calls)
     vloc_psi     :  17882.55s CPU   9133.20s WALL (    3268 calls)
     add_vuspsi   :   2324.86s CPU   1184.43s WALL (    3268 calls)

     General routines
     calbec       :   3044.62s CPU   1543.20s WALL (    3674 calls)
     fft          :     24.96s CPU     13.97s WALL (     736 calls)
     ffts         :      7.14s CPU      8.28s WALL (     236 calls)
     fftw         :   7606.79s CPU   3956.38s WALL ( 2280368 calls)
     interpolate  :      6.01s CPU      3.18s WALL (     120 calls)

     Parallel routines

     PWSCF        :  42199.84s CPU  23672.01s WALL


   This run was terminated on:  14: 9:11  11Nov2025            

=------------------------------------------------------------------------------=
   JOB DONE.
=------------------------------------------------------------------------------=
