
     Program PWSCF v.7.3.1 starts on 11Nov2025 at 14: 9:13 

     This program is part of the open-source Quantum ESPRESSO suite
     for quantum simulation of materials; please cite
         "P. Giannozzi et al., J. Phys.:Condens. Matter 21 395502 (2009);
         "P. Giannozzi et al., J. Phys.:Condens. Matter 29 465901 (2017);
         "P. Giannozzi et al., J. Chem. Phys. 152 154105 (2020);
          URL http://www.quantum-espresso.org", 
     in publications or presentations arising from this work. More details at
     http://www.quantum-espresso.org/quote

     Parallel version (MPI & OpenMP), running on      72 processor cores
     Number of MPI processes:                36
     Threads/MPI process:                     2

     MPI processes distributed on     6 nodes
     12319 MiB available memory on the printing compute node when the environment starts

     Reading input from BPBO.nscf.in

     Current dimensions of program PWSCF are:
     Max number of different atomic species (ntypx) = 10
     Max number of k-points (npk) =  40000
     Max angular momentum in pseudopotentials (lmaxx) =  4
     file Ba.rel-pbe-spn-rrkjus_psl.1.0.0.UPF: wavefunction(s)  5S 6S renormalized
     file Pb.rel-pbe-dn-rrkjus_psl.1.0.0.UPF: wavefunction(s)  6S 5D 5D renormalized
     file Bi.rel-pbe-dn-rrkjus_psl.1.0.0.UPF: wavefunction(s)  5D 5D renormalized

     Atomic positions and unit cell read from directory:
     ./out/bpbo.save/

     Found identity + ( -0.5000 -0.5000 -0.5000) symmetry
     This is a supercell, fractional translations are disabled
     Message from routine setup:
     using ibrav=0 with symmetry is DISCOURAGED, use correct ibrav instead

     K-points division:     npool     =       6
     R & G space division:  proc/nbgrp/npool/nimage =       6
     Subspace diagonalization in iterative solution of the eigenvalue problem:
     one sub-group per band group will be used
     scalapack distributed-memory algorithm (size of sub-group:  2*  2 procs)


     Parallelization info
     --------------------
     sticks:   dense  smooth     PW     G-vecs:    dense   smooth      PW
     Min        2160    1082    291               185100    65434    9147
     Max        2161    1083    292               185105    65437    9150
     Sum       12965    6493   1749              1110621   392615   54891

     Using Slab Decomposition



     bravais-lattice index     =            0
     lattice parameter (alat)  =      16.4784  a.u.
     unit-cell volume          =    4474.5163 (a.u.)^3
     number of atoms/cell      =           40
     number of atomic types    =            4
     number of electrons       =       338.00
     number of Kohn-Sham states=          432
     kinetic-energy cutoff     =      75.0000  Ry
     charge density cutoff     =     600.0000  Ry
     Exchange-correlation= PBE
                           (   1   4   3   4   0   0   0)
     Non magnetic calculation with spin-orbit


     celldm(1)=  16.478412  celldm(2)=   0.000000  celldm(3)=   0.000000
     celldm(4)=   0.000000  celldm(5)=   0.000000  celldm(6)=   0.000000

     crystal axes: (cart. coord. in units of alat)
               a(1) = (   1.000000   0.000000   0.000000 )  
               a(2) = (   0.000000   1.000000   0.000000 )  
               a(3) = (   0.000000   0.000000   1.000000 )  

     reciprocal axes: (cart. coord. in units 2 pi/alat)
               b(1) = (  1.000000  0.000000  0.000000 )  
               b(2) = (  0.000000  1.000000  0.000000 )  
               b(3) = (  0.000000  0.000000  1.000000 )  


     PseudoPot. # 1 for Ba read from file:
     ./pseudo/Ba.rel-pbe-spn-rrkjus_psl.1.0.0.UPF
     MD5 check sum: 94cfde5357c22a4bf03ae8062d9f9c82
     Pseudo is Ultrasoft + core correction, Zval = 10.0
     Generated using &quot;atomic&quot; code by A. Dal Corso  v.6.2.2
     Using radial grid of 1251 points, 11 beta functions with: 
                l(1) =   0
                l(2) =   0
                l(3) =   0
                l(4) =   1
                l(5) =   1
                l(6) =   1
                l(7) =   1
                l(8) =   2
                l(9) =   2
               l(10) =   2
               l(11) =   2
     Q(r) pseudized with 0 coefficients 


     PseudoPot. # 2 for O  read from file:
     ./pseudo/O.rel-pbe-n-rrkjus_psl.1.0.0.UPF
     MD5 check sum: 7bb44c19b4019dea92d8afd4a1c1ae3f
     Pseudo is Ultrasoft + core correction, Zval =  6.0
     Generated using &quot;atomic&quot; code by A. Dal Corso  v.6.3MaX
     Using radial grid of 1095 points,  6 beta functions with: 
                l(1) =   0
                l(2) =   0
                l(3) =   1
                l(4) =   1
                l(5) =   1
                l(6) =   1
     Q(r) pseudized with 0 coefficients 


     PseudoPot. # 3 for Pb read from file:
     ./pseudo/Pb.rel-pbe-dn-rrkjus_psl.1.0.0.UPF
     MD5 check sum: e88f3c92f89adaff2c2c587a7f90e9c0
     Pseudo is Ultrasoft + core correction, Zval = 14.0
     Generated using &quot;atomic&quot; code by A. Dal Corso  v.6.3
     Using radial grid of 1281 points, 10 beta functions with: 
                l(1) =   0
                l(2) =   0
                l(3) =   1
                l(4) =   1
                l(5) =   1
                l(6) =   1
                l(7) =   2
                l(8) =   2
                l(9) =   2
               l(10) =   2
     Q(r) pseudized with 0 coefficients 


     PseudoPot. # 4 for Bi read from file:
     ./pseudo/Bi.rel-pbe-dn-rrkjus_psl.1.0.0.UPF
     MD5 check sum: 0357e51b97995f252f8888940afc4c39
     Pseudo is Ultrasoft + core correction, Zval = 15.0
     Generated using &quot;atomic&quot; code by A. Dal Corso  v.6.2.2
     Using radial grid of 1283 points, 10 beta functions with: 
                l(1) =   0
                l(2) =   0
                l(3) =   1
                l(4) =   1
                l(5) =   1
                l(6) =   1
                l(7) =   2
                l(8) =   2
                l(9) =   2
               l(10) =   2
     Q(r) pseudized with 0 coefficients 


     atomic species   valence    mass     pseudopotential
     Ba               10.00   137.32700     Ba( 1.00)
     O                 6.00    15.99940     O ( 1.00)
     Pb               14.00   207.20000     Pb( 1.00)
     Bi               15.00   208.98040     Bi( 1.00)

     48 Sym. Ops., with inversion, found


                                    s                        frac. trans.

      isym =  1     identity                                     

 cryst.   s( 1) = (     1          0          0      )
                  (     0          1          0      )
                  (     0          0          1      )

 cart.    s( 1) = (  1.0000000  0.0000000  0.0000000 )
                  (  0.0000000  1.0000000  0.0000000 )
                  (  0.0000000  0.0000000  1.0000000 )


      isym =  2     180 deg rotation - cart. axis [0,0,1]        

 cryst.   s( 2) = (    -1          0          0      )
                  (     0         -1          0      )
                  (     0          0          1      )

 cart.    s( 2) = ( -1.0000000  0.0000000  0.0000000 )
                  (  0.0000000 -1.0000000  0.0000000 )
                  (  0.0000000  0.0000000  1.0000000 )


      isym =  3     180 deg rotation - cart. axis [0,1,0]        

 cryst.   s( 3) = (    -1          0          0      )
                  (     0          1          0      )
                  (     0          0         -1      )

 cart.    s( 3) = ( -1.0000000  0.0000000  0.0000000 )
                  (  0.0000000  1.0000000  0.0000000 )
                  (  0.0000000  0.0000000 -1.0000000 )


      isym =  4     180 deg rotation - cart. axis [1,0,0]        

 cryst.   s( 4) = (     1          0          0      )
                  (     0         -1          0      )
                  (     0          0         -1      )

 cart.    s( 4) = (  1.0000000  0.0000000  0.0000000 )
                  (  0.0000000 -1.0000000  0.0000000 )
                  (  0.0000000  0.0000000 -1.0000000 )


      isym =  5     180 deg rotation - cart. axis [1,1,0]        

 cryst.   s( 5) = (     0          1          0      )
                  (     1          0          0      )
                  (     0          0         -1      )

 cart.    s( 5) = (  0.0000000  1.0000000  0.0000000 )
                  (  1.0000000  0.0000000  0.0000000 )
                  (  0.0000000  0.0000000 -1.0000000 )


      isym =  6     180 deg rotation - cart. axis [1,-1,0]       

 cryst.   s( 6) = (     0         -1          0      )
                  (    -1          0          0      )
                  (     0          0         -1      )

 cart.    s( 6) = (  0.0000000 -1.0000000  0.0000000 )
                  ( -1.0000000  0.0000000  0.0000000 )
                  (  0.0000000  0.0000000 -1.0000000 )


      isym =  7      90 deg rotation - cart. axis [0,0,-1]       

 cryst.   s( 7) = (     0         -1          0      )
                  (     1          0          0      )
                  (     0          0          1      )

 cart.    s( 7) = (  0.0000000  1.0000000  0.0000000 )
                  ( -1.0000000  0.0000000  0.0000000 )
                  (  0.0000000  0.0000000  1.0000000 )


      isym =  8      90 deg rotation - cart. axis [0,0,1]        

 cryst.   s( 8) = (     0          1          0      )
                  (    -1          0          0      )
                  (     0          0          1      )

 cart.    s( 8) = (  0.0000000 -1.0000000  0.0000000 )
                  (  1.0000000  0.0000000  0.0000000 )
                  (  0.0000000  0.0000000  1.0000000 )


      isym =  9     180 deg rotation - cart. axis [1,0,1]        

 cryst.   s( 9) = (     0          0          1      )
                  (     0         -1          0      )
                  (     1          0          0      )

 cart.    s( 9) = (  0.0000000  0.0000000  1.0000000 )
                  (  0.0000000 -1.0000000  0.0000000 )
                  (  1.0000000  0.0000000  0.0000000 )


      isym = 10     180 deg rotation - cart. axis [-1,0,1]       

 cryst.   s(10) = (     0          0         -1      )
                  (     0         -1          0      )
                  (    -1          0          0      )

 cart.    s(10) = (  0.0000000  0.0000000 -1.0000000 )
                  (  0.0000000 -1.0000000  0.0000000 )
                  ( -1.0000000  0.0000000  0.0000000 )


      isym = 11      90 deg rotation - cart. axis [0,1,0]        

 cryst.   s(11) = (     0          0         -1      )
                  (     0          1          0      )
                  (     1          0          0      )

 cart.    s(11) = (  0.0000000  0.0000000  1.0000000 )
                  (  0.0000000  1.0000000  0.0000000 )
                  ( -1.0000000  0.0000000  0.0000000 )


      isym = 12      90 deg rotation - cart. axis [0,-1,0]       

 cryst.   s(12) = (     0          0          1      )
                  (     0          1          0      )
                  (    -1          0          0      )

 cart.    s(12) = (  0.0000000  0.0000000 -1.0000000 )
                  (  0.0000000  1.0000000  0.0000000 )
                  (  1.0000000  0.0000000  0.0000000 )


      isym = 13     180 deg rotation - cart. axis [0,1,1]        

 cryst.   s(13) = (    -1          0          0      )
                  (     0          0          1      )
                  (     0          1          0      )

 cart.    s(13) = ( -1.0000000  0.0000000  0.0000000 )
                  (  0.0000000  0.0000000  1.0000000 )
                  (  0.0000000  1.0000000  0.0000000 )


      isym = 14     180 deg rotation - cart. axis [0,1,-1]       

 cryst.   s(14) = (    -1          0          0      )
                  (     0          0         -1      )
                  (     0         -1          0      )

 cart.    s(14) = ( -1.0000000  0.0000000  0.0000000 )
                  (  0.0000000  0.0000000 -1.0000000 )
                  (  0.0000000 -1.0000000  0.0000000 )


      isym = 15      90 deg rotation - cart. axis [-1,0,0]       

 cryst.   s(15) = (     1          0          0      )
                  (     0          0         -1      )
                  (     0          1          0      )

 cart.    s(15) = (  1.0000000  0.0000000  0.0000000 )
                  (  0.0000000  0.0000000  1.0000000 )
                  (  0.0000000 -1.0000000  0.0000000 )


      isym = 16      90 deg rotation - cart. axis [1,0,0]        

 cryst.   s(16) = (     1          0          0      )
                  (     0          0          1      )
                  (     0         -1          0      )

 cart.    s(16) = (  1.0000000  0.0000000  0.0000000 )
                  (  0.0000000  0.0000000 -1.0000000 )
                  (  0.0000000  1.0000000  0.0000000 )


      isym = 17     120 deg rotation - cart. axis [-1,-1,-1]     

 cryst.   s(17) = (     0          0          1      )
                  (     1          0          0      )
                  (     0          1          0      )

 cart.    s(17) = (  0.0000000  1.0000000  0.0000000 )
                  (  0.0000000  0.0000000  1.0000000 )
                  (  1.0000000  0.0000000  0.0000000 )


      isym = 18     120 deg rotation - cart. axis [-1,1,1]       

 cryst.   s(18) = (     0          0         -1      )
                  (    -1          0          0      )
                  (     0          1          0      )

 cart.    s(18) = (  0.0000000 -1.0000000  0.0000000 )
                  (  0.0000000  0.0000000  1.0000000 )
                  ( -1.0000000  0.0000000  0.0000000 )


      isym = 19     120 deg rotation - cart. axis [1,1,-1]       

 cryst.   s(19) = (     0          0         -1      )
                  (     1          0          0      )
                  (     0         -1          0      )

 cart.    s(19) = (  0.0000000  1.0000000  0.0000000 )
                  (  0.0000000  0.0000000 -1.0000000 )
                  ( -1.0000000  0.0000000  0.0000000 )


      isym = 20     120 deg rotation - cart. axis [1,-1,1]       

 cryst.   s(20) = (     0          0          1      )
                  (    -1          0          0      )
                  (     0         -1          0      )

 cart.    s(20) = (  0.0000000 -1.0000000  0.0000000 )
                  (  0.0000000  0.0000000 -1.0000000 )
                  (  1.0000000  0.0000000  0.0000000 )


      isym = 21     120 deg rotation - cart. axis [1,1,1]        

 cryst.   s(21) = (     0          1          0      )
                  (     0          0          1      )
                  (     1          0          0      )

 cart.    s(21) = (  0.0000000  0.0000000  1.0000000 )
                  (  1.0000000  0.0000000  0.0000000 )
                  (  0.0000000  1.0000000  0.0000000 )


      isym = 22     120 deg rotation - cart. axis [-1,1,-1]      

 cryst.   s(22) = (     0         -1          0      )
                  (     0          0         -1      )
                  (     1          0          0      )

 cart.    s(22) = (  0.0000000  0.0000000  1.0000000 )
                  ( -1.0000000  0.0000000  0.0000000 )
                  (  0.0000000 -1.0000000  0.0000000 )


      isym = 23     120 deg rotation - cart. axis [1,-1,-1]      

 cryst.   s(23) = (     0         -1          0      )
                  (     0          0          1      )
                  (    -1          0          0      )

 cart.    s(23) = (  0.0000000  0.0000000 -1.0000000 )
                  ( -1.0000000  0.0000000  0.0000000 )
                  (  0.0000000  1.0000000  0.0000000 )


      isym = 24     120 deg rotation - cart. axis [-1,-1,1]      

 cryst.   s(24) = (     0          1          0      )
                  (     0          0         -1      )
                  (    -1          0          0      )

 cart.    s(24) = (  0.0000000  0.0000000 -1.0000000 )
                  (  1.0000000  0.0000000  0.0000000 )
                  (  0.0000000 -1.0000000  0.0000000 )


      isym = 25     inversion                                    

 cryst.   s(25) = (    -1          0          0      )
                  (     0         -1          0      )
                  (     0          0         -1      )

 cart.    s(25) = ( -1.0000000  0.0000000  0.0000000 )
                  (  0.0000000 -1.0000000  0.0000000 )
                  (  0.0000000  0.0000000 -1.0000000 )


      isym = 26     inv. 180 deg rotation - cart. axis [0,0,1]   

 cryst.   s(26) = (     1          0          0      )
                  (     0          1          0      )
                  (     0          0         -1      )

 cart.    s(26) = (  1.0000000  0.0000000  0.0000000 )
                  (  0.0000000  1.0000000  0.0000000 )
                  (  0.0000000  0.0000000 -1.0000000 )


      isym = 27     inv. 180 deg rotation - cart. axis [0,1,0]   

 cryst.   s(27) = (     1          0          0      )
                  (     0         -1          0      )
                  (     0          0          1      )

 cart.    s(27) = (  1.0000000  0.0000000  0.0000000 )
                  (  0.0000000 -1.0000000  0.0000000 )
                  (  0.0000000  0.0000000  1.0000000 )


      isym = 28     inv. 180 deg rotation - cart. axis [1,0,0]   

 cryst.   s(28) = (    -1          0          0      )
                  (     0          1          0      )
                  (     0          0          1      )

 cart.    s(28) = ( -1.0000000  0.0000000  0.0000000 )
                  (  0.0000000  1.0000000  0.0000000 )
                  (  0.0000000  0.0000000  1.0000000 )


      isym = 29     inv. 180 deg rotation - cart. axis [1,1,0]   

 cryst.   s(29) = (     0         -1          0      )
                  (    -1          0          0      )
                  (     0          0          1      )

 cart.    s(29) = (  0.0000000 -1.0000000  0.0000000 )
                  ( -1.0000000  0.0000000  0.0000000 )
                  (  0.0000000  0.0000000  1.0000000 )


      isym = 30     inv. 180 deg rotation - cart. axis [1,-1,0]  

 cryst.   s(30) = (     0          1          0      )
                  (     1          0          0      )
                  (     0          0          1      )

 cart.    s(30) = (  0.0000000  1.0000000  0.0000000 )
                  (  1.0000000  0.0000000  0.0000000 )
                  (  0.0000000  0.0000000  1.0000000 )


      isym = 31     inv.  90 deg rotation - cart. axis [0,0,-1]  

 cryst.   s(31) = (     0          1          0      )
                  (    -1          0          0      )
                  (     0          0         -1      )

 cart.    s(31) = (  0.0000000 -1.0000000  0.0000000 )
                  (  1.0000000  0.0000000  0.0000000 )
                  (  0.0000000  0.0000000 -1.0000000 )


      isym = 32     inv.  90 deg rotation - cart. axis [0,0,1]   

 cryst.   s(32) = (     0         -1          0      )
                  (     1          0          0      )
                  (     0          0         -1      )

 cart.    s(32) = (  0.0000000  1.0000000  0.0000000 )
                  ( -1.0000000  0.0000000  0.0000000 )
                  (  0.0000000  0.0000000 -1.0000000 )


      isym = 33     inv. 180 deg rotation - cart. axis [1,0,1]   

 cryst.   s(33) = (     0          0         -1      )
                  (     0          1          0      )
                  (    -1          0          0      )

 cart.    s(33) = (  0.0000000  0.0000000 -1.0000000 )
                  (  0.0000000  1.0000000  0.0000000 )
                  ( -1.0000000  0.0000000  0.0000000 )


      isym = 34     inv. 180 deg rotation - cart. axis [-1,0,1]  

 cryst.   s(34) = (     0          0          1      )
                  (     0          1          0      )
                  (     1          0          0      )

 cart.    s(34) = (  0.0000000  0.0000000  1.0000000 )
                  (  0.0000000  1.0000000  0.0000000 )
                  (  1.0000000  0.0000000  0.0000000 )


      isym = 35     inv.  90 deg rotation - cart. axis [0,1,0]   

 cryst.   s(35) = (     0          0          1      )
                  (     0         -1          0      )
                  (    -1          0          0      )

 cart.    s(35) = (  0.0000000  0.0000000 -1.0000000 )
                  (  0.0000000 -1.0000000  0.0000000 )
                  (  1.0000000  0.0000000  0.0000000 )


      isym = 36     inv.  90 deg rotation - cart. axis [0,-1,0]  

 cryst.   s(36) = (     0          0         -1      )
                  (     0         -1          0      )
                  (     1          0          0      )

 cart.    s(36) = (  0.0000000  0.0000000  1.0000000 )
                  (  0.0000000 -1.0000000  0.0000000 )
                  ( -1.0000000  0.0000000  0.0000000 )


      isym = 37     inv. 180 deg rotation - cart. axis [0,1,1]   

 cryst.   s(37) = (     1          0          0      )
                  (     0          0         -1      )
                  (     0         -1          0      )

 cart.    s(37) = (  1.0000000  0.0000000  0.0000000 )
                  (  0.0000000  0.0000000 -1.0000000 )
                  (  0.0000000 -1.0000000  0.0000000 )


      isym = 38     inv. 180 deg rotation - cart. axis [0,1,-1]  

 cryst.   s(38) = (     1          0          0      )
                  (     0          0          1      )
                  (     0          1          0      )

 cart.    s(38) = (  1.0000000  0.0000000  0.0000000 )
                  (  0.0000000  0.0000000  1.0000000 )
                  (  0.0000000  1.0000000  0.0000000 )


      isym = 39     inv.  90 deg rotation - cart. axis [-1,0,0]  

 cryst.   s(39) = (    -1          0          0      )
                  (     0          0          1      )
                  (     0         -1          0      )

 cart.    s(39) = ( -1.0000000  0.0000000  0.0000000 )
                  (  0.0000000  0.0000000 -1.0000000 )
                  (  0.0000000  1.0000000  0.0000000 )


      isym = 40     inv.  90 deg rotation - cart. axis [1,0,0]   

 cryst.   s(40) = (    -1          0          0      )
                  (     0          0         -1      )
                  (     0          1          0      )

 cart.    s(40) = ( -1.0000000  0.0000000  0.0000000 )
                  (  0.0000000  0.0000000  1.0000000 )
                  (  0.0000000 -1.0000000  0.0000000 )


      isym = 41     inv. 120 deg rotation - cart. axis [-1,-1,-1]

 cryst.   s(41) = (     0          0         -1      )
                  (    -1          0          0      )
                  (     0         -1          0      )

 cart.    s(41) = (  0.0000000 -1.0000000  0.0000000 )
                  (  0.0000000  0.0000000 -1.0000000 )
                  ( -1.0000000  0.0000000  0.0000000 )


      isym = 42     inv. 120 deg rotation - cart. axis [-1,1,1]  

 cryst.   s(42) = (     0          0          1      )
                  (     1          0          0      )
                  (     0         -1          0      )

 cart.    s(42) = (  0.0000000  1.0000000  0.0000000 )
                  (  0.0000000  0.0000000 -1.0000000 )
                  (  1.0000000  0.0000000  0.0000000 )


      isym = 43     inv. 120 deg rotation - cart. axis [1,1,-1]  

 cryst.   s(43) = (     0          0          1      )
                  (    -1          0          0      )
                  (     0          1          0      )

 cart.    s(43) = (  0.0000000 -1.0000000  0.0000000 )
                  (  0.0000000  0.0000000  1.0000000 )
                  (  1.0000000  0.0000000  0.0000000 )


      isym = 44     inv. 120 deg rotation - cart. axis [1,-1,1]  

 cryst.   s(44) = (     0          0         -1      )
                  (     1          0          0      )
                  (     0          1          0      )

 cart.    s(44) = (  0.0000000  1.0000000  0.0000000 )
                  (  0.0000000  0.0000000  1.0000000 )
                  ( -1.0000000  0.0000000  0.0000000 )


      isym = 45     inv. 120 deg rotation - cart. axis [1,1,1]   

 cryst.   s(45) = (     0         -1          0      )
                  (     0          0         -1      )
                  (    -1          0          0      )

 cart.    s(45) = (  0.0000000  0.0000000 -1.0000000 )
                  ( -1.0000000  0.0000000  0.0000000 )
                  (  0.0000000 -1.0000000  0.0000000 )


      isym = 46     inv. 120 deg rotation - cart. axis [-1,1,-1] 

 cryst.   s(46) = (     0          1          0      )
                  (     0          0          1      )
                  (    -1          0          0      )

 cart.    s(46) = (  0.0000000  0.0000000 -1.0000000 )
                  (  1.0000000  0.0000000  0.0000000 )
                  (  0.0000000  1.0000000  0.0000000 )


      isym = 47     inv. 120 deg rotation - cart. axis [1,-1,-1] 

 cryst.   s(47) = (     0          1          0      )
                  (     0          0         -1      )
                  (     1          0          0      )

 cart.    s(47) = (  0.0000000  0.0000000  1.0000000 )
                  (  1.0000000  0.0000000  0.0000000 )
                  (  0.0000000 -1.0000000  0.0000000 )


      isym = 48     inv. 120 deg rotation - cart. axis [-1,-1,1] 

 cryst.   s(48) = (     0         -1          0      )
                  (     0          0          1      )
                  (     1          0          0      )

 cart.    s(48) = (  0.0000000  0.0000000  1.0000000 )
                  ( -1.0000000  0.0000000  0.0000000 )
                  (  0.0000000  1.0000000  0.0000000 )


   Cartesian axes

     site n.     atom                  positions (alat units)
         1        Ba     tau(   1) = (   0.2500000   0.2500000   0.2500000  )
         2        Ba     tau(   2) = (   0.2500000   0.2500000   0.7500000  )
         3        Ba     tau(   3) = (   0.2500000   0.7500000   0.2500000  )
         4        Ba     tau(   4) = (   0.2500000   0.7500000   0.7500000  )
         5        Ba     tau(   5) = (   0.7500000   0.2500000   0.2500000  )
         6        Ba     tau(   6) = (   0.7500000   0.2500000   0.7500000  )
         7        Ba     tau(   7) = (   0.7500000   0.7500000   0.2500000  )
         8        Ba     tau(   8) = (   0.7500000   0.7500000   0.7500000  )
         9        Bi     tau(   9) = (   0.0000000   0.0000000   0.0000000  )
        10        Bi     tau(  10) = (   0.5000000   0.5000000   0.5000000  )
        11        Pb     tau(  11) = (   0.0000000   0.0000000   0.5000000  )
        12        Pb     tau(  12) = (   0.0000000   0.5000000   0.0000000  )
        13        Pb     tau(  13) = (   0.0000000   0.5000000   0.5000000  )
        14        Pb     tau(  14) = (   0.5000000   0.0000000   0.0000000  )
        15        Pb     tau(  15) = (   0.5000000   0.0000000   0.5000000  )
        16        Pb     tau(  16) = (   0.5000000   0.5000000   0.0000000  )
        17        O      tau(  17) = (   0.0000000   0.2500000   0.0000000  )
        18        O      tau(  18) = (   0.0000000   0.2500000   0.5000000  )
        19        O      tau(  19) = (   0.0000000   0.7500000   0.0000000  )
        20        O      tau(  20) = (   0.0000000   0.7500000   0.5000000  )
        21        O      tau(  21) = (   0.5000000   0.2500000   0.0000000  )
        22        O      tau(  22) = (   0.5000000   0.2500000   0.5000000  )
        23        O      tau(  23) = (   0.5000000   0.7500000   0.0000000  )
        24        O      tau(  24) = (   0.5000000   0.7500000   0.5000000  )
        25        O      tau(  25) = (   0.0000000   0.0000000   0.2500000  )
        26        O      tau(  26) = (   0.0000000   0.0000000   0.7500000  )
        27        O      tau(  27) = (   0.0000000   0.5000000   0.2500000  )
        28        O      tau(  28) = (   0.0000000   0.5000000   0.7500000  )
        29        O      tau(  29) = (   0.5000000   0.0000000   0.2500000  )
        30        O      tau(  30) = (   0.5000000   0.0000000   0.7500000  )
        31        O      tau(  31) = (   0.5000000   0.5000000   0.2500000  )
        32        O      tau(  32) = (   0.5000000   0.5000000   0.7500000  )
        33        O      tau(  33) = (   0.2500000   0.0000000   0.0000000  )
        34        O      tau(  34) = (   0.2500000   0.0000000   0.5000000  )
        35        O      tau(  35) = (   0.2500000   0.5000000   0.0000000  )
        36        O      tau(  36) = (   0.2500000   0.5000000   0.5000000  )
        37        O      tau(  37) = (   0.7500000   0.0000000   0.0000000  )
        38        O      tau(  38) = (   0.7500000   0.0000000   0.5000000  )
        39        O      tau(  39) = (   0.7500000   0.5000000   0.0000000  )
        40        O      tau(  40) = (   0.7500000   0.5000000   0.5000000  )

   Crystallographic axes

     site n.     atom                  positions (cryst. coord.)
         1        Ba     tau(   1) = (  0.2500000  0.2500000  0.2500000  )
         2        Ba     tau(   2) = (  0.2500000  0.2500000  0.7500000  )
         3        Ba     tau(   3) = (  0.2500000  0.7500000  0.2500000  )
         4        Ba     tau(   4) = (  0.2500000  0.7500000  0.7500000  )
         5        Ba     tau(   5) = (  0.7500000  0.2500000  0.2500000  )
         6        Ba     tau(   6) = (  0.7500000  0.2500000  0.7500000  )
         7        Ba     tau(   7) = (  0.7500000  0.7500000  0.2500000  )
         8        Ba     tau(   8) = (  0.7500000  0.7500000  0.7500000  )
         9        Bi     tau(   9) = (  0.0000000  0.0000000  0.0000000  )
        10        Bi     tau(  10) = (  0.5000000  0.5000000  0.5000000  )
        11        Pb     tau(  11) = (  0.0000000  0.0000000  0.5000000  )
        12        Pb     tau(  12) = (  0.0000000  0.5000000  0.0000000  )
        13        Pb     tau(  13) = (  0.0000000  0.5000000  0.5000000  )
        14        Pb     tau(  14) = (  0.5000000  0.0000000  0.0000000  )
        15        Pb     tau(  15) = (  0.5000000  0.0000000  0.5000000  )
        16        Pb     tau(  16) = (  0.5000000  0.5000000  0.0000000  )
        17        O      tau(  17) = (  0.0000000  0.2500000  0.0000000  )
        18        O      tau(  18) = (  0.0000000  0.2500000  0.5000000  )
        19        O      tau(  19) = (  0.0000000  0.7500000  0.0000000  )
        20        O      tau(  20) = (  0.0000000  0.7500000  0.5000000  )
        21        O      tau(  21) = (  0.5000000  0.2500000  0.0000000  )
        22        O      tau(  22) = (  0.5000000  0.2500000  0.5000000  )
        23        O      tau(  23) = (  0.5000000  0.7500000  0.0000000  )
        24        O      tau(  24) = (  0.5000000  0.7500000  0.5000000  )
        25        O      tau(  25) = (  0.0000000  0.0000000  0.2500000  )
        26        O      tau(  26) = (  0.0000000  0.0000000  0.7500000  )
        27        O      tau(  27) = (  0.0000000  0.5000000  0.2500000  )
        28        O      tau(  28) = (  0.0000000  0.5000000  0.7500000  )
        29        O      tau(  29) = (  0.5000000  0.0000000  0.2500000  )
        30        O      tau(  30) = (  0.5000000  0.0000000  0.7500000  )
        31        O      tau(  31) = (  0.5000000  0.5000000  0.2500000  )
        32        O      tau(  32) = (  0.5000000  0.5000000  0.7500000  )
        33        O      tau(  33) = (  0.2500000  0.0000000  0.0000000  )
        34        O      tau(  34) = (  0.2500000  0.0000000  0.5000000  )
        35        O      tau(  35) = (  0.2500000  0.5000000  0.0000000  )
        36        O      tau(  36) = (  0.2500000  0.5000000  0.5000000  )
        37        O      tau(  37) = (  0.7500000  0.0000000  0.0000000  )
        38        O      tau(  38) = (  0.7500000  0.0000000  0.5000000  )
        39        O      tau(  39) = (  0.7500000  0.5000000  0.0000000  )
        40        O      tau(  40) = (  0.7500000  0.5000000  0.5000000  )

     number of k points=   251  Marzari-Vanderbilt smearing, width (Ry)=  0.0073
                       cart. coord. in units 2pi/alat
        k(    1) = (   0.0000000   0.0000000   0.0000000), wk =   0.0039841
        k(    2) = (   0.0000000   0.0100000   0.0000000), wk =   0.0039841
        k(    3) = (   0.0000000   0.0200000   0.0000000), wk =   0.0039841
        k(    4) = (   0.0000000   0.0300000   0.0000000), wk =   0.0039841
        k(    5) = (   0.0000000   0.0400000   0.0000000), wk =   0.0039841
        k(    6) = (   0.0000000   0.0500000   0.0000000), wk =   0.0039841
        k(    7) = (   0.0000000   0.0600000   0.0000000), wk =   0.0039841
        k(    8) = (   0.0000000   0.0700000   0.0000000), wk =   0.0039841
        k(    9) = (   0.0000000   0.0800000   0.0000000), wk =   0.0039841
        k(   10) = (   0.0000000   0.0900000   0.0000000), wk =   0.0039841
        k(   11) = (   0.0000000   0.1000000   0.0000000), wk =   0.0039841
        k(   12) = (   0.0000000   0.1100000   0.0000000), wk =   0.0039841
        k(   13) = (   0.0000000   0.1200000   0.0000000), wk =   0.0039841
        k(   14) = (   0.0000000   0.1300000   0.0000000), wk =   0.0039841
        k(   15) = (   0.0000000   0.1400000   0.0000000), wk =   0.0039841
        k(   16) = (   0.0000000   0.1500000   0.0000000), wk =   0.0039841
        k(   17) = (   0.0000000   0.1600000   0.0000000), wk =   0.0039841
        k(   18) = (   0.0000000   0.1700000   0.0000000), wk =   0.0039841
        k(   19) = (   0.0000000   0.1800000   0.0000000), wk =   0.0039841
        k(   20) = (   0.0000000   0.1900000   0.0000000), wk =   0.0039841
        k(   21) = (   0.0000000   0.2000000   0.0000000), wk =   0.0039841
        k(   22) = (   0.0000000   0.2100000   0.0000000), wk =   0.0039841
        k(   23) = (   0.0000000   0.2200000   0.0000000), wk =   0.0039841
        k(   24) = (   0.0000000   0.2300000   0.0000000), wk =   0.0039841
        k(   25) = (   0.0000000   0.2400000   0.0000000), wk =   0.0039841
        k(   26) = (   0.0000000   0.2500000   0.0000000), wk =   0.0039841
        k(   27) = (   0.0000000   0.2600000   0.0000000), wk =   0.0039841
        k(   28) = (   0.0000000   0.2700000   0.0000000), wk =   0.0039841
        k(   29) = (   0.0000000   0.2800000   0.0000000), wk =   0.0039841
        k(   30) = (   0.0000000   0.2900000   0.0000000), wk =   0.0039841
        k(   31) = (   0.0000000   0.3000000   0.0000000), wk =   0.0039841
        k(   32) = (   0.0000000   0.3100000   0.0000000), wk =   0.0039841
        k(   33) = (   0.0000000   0.3200000   0.0000000), wk =   0.0039841
        k(   34) = (   0.0000000   0.3300000   0.0000000), wk =   0.0039841
        k(   35) = (   0.0000000   0.3400000   0.0000000), wk =   0.0039841
        k(   36) = (   0.0000000   0.3500000   0.0000000), wk =   0.0039841
        k(   37) = (   0.0000000   0.3600000   0.0000000), wk =   0.0039841
        k(   38) = (   0.0000000   0.3700000   0.0000000), wk =   0.0039841
        k(   39) = (   0.0000000   0.3800000   0.0000000), wk =   0.0039841
        k(   40) = (   0.0000000   0.3900000   0.0000000), wk =   0.0039841
        k(   41) = (   0.0000000   0.4000000   0.0000000), wk =   0.0039841
        k(   42) = (   0.0000000   0.4100000   0.0000000), wk =   0.0039841
        k(   43) = (   0.0000000   0.4200000   0.0000000), wk =   0.0039841
        k(   44) = (   0.0000000   0.4300000   0.0000000), wk =   0.0039841
        k(   45) = (   0.0000000   0.4400000   0.0000000), wk =   0.0039841
        k(   46) = (   0.0000000   0.4500000   0.0000000), wk =   0.0039841
        k(   47) = (   0.0000000   0.4600000   0.0000000), wk =   0.0039841
        k(   48) = (   0.0000000   0.4700000   0.0000000), wk =   0.0039841
        k(   49) = (   0.0000000   0.4800000   0.0000000), wk =   0.0039841
        k(   50) = (   0.0000000   0.4900000   0.0000000), wk =   0.0039841
        k(   51) = (   0.0000000   0.5000000   0.0000000), wk =   0.0039841
        k(   52) = (   0.0100000   0.5000000   0.0000000), wk =   0.0039841
        k(   53) = (   0.0200000   0.5000000   0.0000000), wk =   0.0039841
        k(   54) = (   0.0300000   0.5000000   0.0000000), wk =   0.0039841
        k(   55) = (   0.0400000   0.5000000   0.0000000), wk =   0.0039841
        k(   56) = (   0.0500000   0.5000000   0.0000000), wk =   0.0039841
        k(   57) = (   0.0600000   0.5000000   0.0000000), wk =   0.0039841
        k(   58) = (   0.0700000   0.5000000   0.0000000), wk =   0.0039841
        k(   59) = (   0.0800000   0.5000000   0.0000000), wk =   0.0039841
        k(   60) = (   0.0900000   0.5000000   0.0000000), wk =   0.0039841
        k(   61) = (   0.1000000   0.5000000   0.0000000), wk =   0.0039841
        k(   62) = (   0.1100000   0.5000000   0.0000000), wk =   0.0039841
        k(   63) = (   0.1200000   0.5000000   0.0000000), wk =   0.0039841
        k(   64) = (   0.1300000   0.5000000   0.0000000), wk =   0.0039841
        k(   65) = (   0.1400000   0.5000000   0.0000000), wk =   0.0039841
        k(   66) = (   0.1500000   0.5000000   0.0000000), wk =   0.0039841
        k(   67) = (   0.1600000   0.5000000   0.0000000), wk =   0.0039841
        k(   68) = (   0.1700000   0.5000000   0.0000000), wk =   0.0039841
        k(   69) = (   0.1800000   0.5000000   0.0000000), wk =   0.0039841
        k(   70) = (   0.1900000   0.5000000   0.0000000), wk =   0.0039841
        k(   71) = (   0.2000000   0.5000000   0.0000000), wk =   0.0039841
        k(   72) = (   0.2100000   0.5000000   0.0000000), wk =   0.0039841
        k(   73) = (   0.2200000   0.5000000   0.0000000), wk =   0.0039841
        k(   74) = (   0.2300000   0.5000000   0.0000000), wk =   0.0039841
        k(   75) = (   0.2400000   0.5000000   0.0000000), wk =   0.0039841
        k(   76) = (   0.2500000   0.5000000   0.0000000), wk =   0.0039841
        k(   77) = (   0.2600000   0.5000000   0.0000000), wk =   0.0039841
        k(   78) = (   0.2700000   0.5000000   0.0000000), wk =   0.0039841
        k(   79) = (   0.2800000   0.5000000   0.0000000), wk =   0.0039841
        k(   80) = (   0.2900000   0.5000000   0.0000000), wk =   0.0039841
        k(   81) = (   0.3000000   0.5000000   0.0000000), wk =   0.0039841
        k(   82) = (   0.3100000   0.5000000   0.0000000), wk =   0.0039841
        k(   83) = (   0.3200000   0.5000000   0.0000000), wk =   0.0039841
        k(   84) = (   0.3300000   0.5000000   0.0000000), wk =   0.0039841
        k(   85) = (   0.3400000   0.5000000   0.0000000), wk =   0.0039841
        k(   86) = (   0.3500000   0.5000000   0.0000000), wk =   0.0039841
        k(   87) = (   0.3600000   0.5000000   0.0000000), wk =   0.0039841
        k(   88) = (   0.3700000   0.5000000   0.0000000), wk =   0.0039841
        k(   89) = (   0.3800000   0.5000000   0.0000000), wk =   0.0039841
        k(   90) = (   0.3900000   0.5000000   0.0000000), wk =   0.0039841
        k(   91) = (   0.4000000   0.5000000   0.0000000), wk =   0.0039841
        k(   92) = (   0.4100000   0.5000000   0.0000000), wk =   0.0039841
        k(   93) = (   0.4200000   0.5000000   0.0000000), wk =   0.0039841
        k(   94) = (   0.4300000   0.5000000   0.0000000), wk =   0.0039841
        k(   95) = (   0.4400000   0.5000000   0.0000000), wk =   0.0039841
        k(   96) = (   0.4500000   0.5000000   0.0000000), wk =   0.0039841
        k(   97) = (   0.4600000   0.5000000   0.0000000), wk =   0.0039841
        k(   98) = (   0.4700000   0.5000000   0.0000000), wk =   0.0039841
        k(   99) = (   0.4800000   0.5000000   0.0000000), wk =   0.0039841
        k(  100) = (   0.4900000   0.5000000   0.0000000), wk =   0.0039841
        k(  101) = (   0.5000000   0.5000000   0.0000000), wk =   0.0039841
        k(  102) = (   0.5000000   0.5000000   0.0100000), wk =   0.0039841
        k(  103) = (   0.5000000   0.5000000   0.0200000), wk =   0.0039841
        k(  104) = (   0.5000000   0.5000000   0.0300000), wk =   0.0039841
        k(  105) = (   0.5000000   0.5000000   0.0400000), wk =   0.0039841
        k(  106) = (   0.5000000   0.5000000   0.0500000), wk =   0.0039841
        k(  107) = (   0.5000000   0.5000000   0.0600000), wk =   0.0039841
        k(  108) = (   0.5000000   0.5000000   0.0700000), wk =   0.0039841
        k(  109) = (   0.5000000   0.5000000   0.0800000), wk =   0.0039841
        k(  110) = (   0.5000000   0.5000000   0.0900000), wk =   0.0039841
        k(  111) = (   0.5000000   0.5000000   0.1000000), wk =   0.0039841
        k(  112) = (   0.5000000   0.5000000   0.1100000), wk =   0.0039841
        k(  113) = (   0.5000000   0.5000000   0.1200000), wk =   0.0039841
        k(  114) = (   0.5000000   0.5000000   0.1300000), wk =   0.0039841
        k(  115) = (   0.5000000   0.5000000   0.1400000), wk =   0.0039841
        k(  116) = (   0.5000000   0.5000000   0.1500000), wk =   0.0039841
        k(  117) = (   0.5000000   0.5000000   0.1600000), wk =   0.0039841
        k(  118) = (   0.5000000   0.5000000   0.1700000), wk =   0.0039841
        k(  119) = (   0.5000000   0.5000000   0.1800000), wk =   0.0039841
        k(  120) = (   0.5000000   0.5000000   0.1900000), wk =   0.0039841
        k(  121) = (   0.5000000   0.5000000   0.2000000), wk =   0.0039841
        k(  122) = (   0.5000000   0.5000000   0.2100000), wk =   0.0039841
        k(  123) = (   0.5000000   0.5000000   0.2200000), wk =   0.0039841
        k(  124) = (   0.5000000   0.5000000   0.2300000), wk =   0.0039841
        k(  125) = (   0.5000000   0.5000000   0.2400000), wk =   0.0039841
        k(  126) = (   0.5000000   0.5000000   0.2500000), wk =   0.0039841
        k(  127) = (   0.5000000   0.5000000   0.2600000), wk =   0.0039841
        k(  128) = (   0.5000000   0.5000000   0.2700000), wk =   0.0039841
        k(  129) = (   0.5000000   0.5000000   0.2800000), wk =   0.0039841
        k(  130) = (   0.5000000   0.5000000   0.2900000), wk =   0.0039841
        k(  131) = (   0.5000000   0.5000000   0.3000000), wk =   0.0039841
        k(  132) = (   0.5000000   0.5000000   0.3100000), wk =   0.0039841
        k(  133) = (   0.5000000   0.5000000   0.3200000), wk =   0.0039841
        k(  134) = (   0.5000000   0.5000000   0.3300000), wk =   0.0039841
        k(  135) = (   0.5000000   0.5000000   0.3400000), wk =   0.0039841
        k(  136) = (   0.5000000   0.5000000   0.3500000), wk =   0.0039841
        k(  137) = (   0.5000000   0.5000000   0.3600000), wk =   0.0039841
        k(  138) = (   0.5000000   0.5000000   0.3700000), wk =   0.0039841
        k(  139) = (   0.5000000   0.5000000   0.3800000), wk =   0.0039841
        k(  140) = (   0.5000000   0.5000000   0.3900000), wk =   0.0039841
        k(  141) = (   0.5000000   0.5000000   0.4000000), wk =   0.0039841
        k(  142) = (   0.5000000   0.5000000   0.4100000), wk =   0.0039841
        k(  143) = (   0.5000000   0.5000000   0.4200000), wk =   0.0039841
        k(  144) = (   0.5000000   0.5000000   0.4300000), wk =   0.0039841
        k(  145) = (   0.5000000   0.5000000   0.4400000), wk =   0.0039841
        k(  146) = (   0.5000000   0.5000000   0.4500000), wk =   0.0039841
        k(  147) = (   0.5000000   0.5000000   0.4600000), wk =   0.0039841
        k(  148) = (   0.5000000   0.5000000   0.4700000), wk =   0.0039841
        k(  149) = (   0.5000000   0.5000000   0.4800000), wk =   0.0039841
        k(  150) = (   0.5000000   0.5000000   0.4900000), wk =   0.0039841
        k(  151) = (   0.5000000   0.5000000   0.5000000), wk =   0.0039841
        k(  152) = (   0.4900000   0.4900000   0.4900000), wk =   0.0039841
        k(  153) = (   0.4800000   0.4800000   0.4800000), wk =   0.0039841
        k(  154) = (   0.4700000   0.4700000   0.4700000), wk =   0.0039841
        k(  155) = (   0.4600000   0.4600000   0.4600000), wk =   0.0039841
        k(  156) = (   0.4500000   0.4500000   0.4500000), wk =   0.0039841
        k(  157) = (   0.4400000   0.4400000   0.4400000), wk =   0.0039841
        k(  158) = (   0.4300000   0.4300000   0.4300000), wk =   0.0039841
        k(  159) = (   0.4200000   0.4200000   0.4200000), wk =   0.0039841
        k(  160) = (   0.4100000   0.4100000   0.4100000), wk =   0.0039841
        k(  161) = (   0.4000000   0.4000000   0.4000000), wk =   0.0039841
        k(  162) = (   0.3900000   0.3900000   0.3900000), wk =   0.0039841
        k(  163) = (   0.3800000   0.3800000   0.3800000), wk =   0.0039841
        k(  164) = (   0.3700000   0.3700000   0.3700000), wk =   0.0039841
        k(  165) = (   0.3600000   0.3600000   0.3600000), wk =   0.0039841
        k(  166) = (   0.3500000   0.3500000   0.3500000), wk =   0.0039841
        k(  167) = (   0.3400000   0.3400000   0.3400000), wk =   0.0039841
        k(  168) = (   0.3300000   0.3300000   0.3300000), wk =   0.0039841
        k(  169) = (   0.3200000   0.3200000   0.3200000), wk =   0.0039841
        k(  170) = (   0.3100000   0.3100000   0.3100000), wk =   0.0039841
        k(  171) = (   0.3000000   0.3000000   0.3000000), wk =   0.0039841
        k(  172) = (   0.2900000   0.2900000   0.2900000), wk =   0.0039841
        k(  173) = (   0.2800000   0.2800000   0.2800000), wk =   0.0039841
        k(  174) = (   0.2700000   0.2700000   0.2700000), wk =   0.0039841
        k(  175) = (   0.2600000   0.2600000   0.2600000), wk =   0.0039841
        k(  176) = (   0.2500000   0.2500000   0.2500000), wk =   0.0039841
        k(  177) = (   0.2400000   0.2400000   0.2400000), wk =   0.0039841
        k(  178) = (   0.2300000   0.2300000   0.2300000), wk =   0.0039841
        k(  179) = (   0.2200000   0.2200000   0.2200000), wk =   0.0039841
        k(  180) = (   0.2100000   0.2100000   0.2100000), wk =   0.0039841
        k(  181) = (   0.2000000   0.2000000   0.2000000), wk =   0.0039841
        k(  182) = (   0.1900000   0.1900000   0.1900000), wk =   0.0039841
        k(  183) = (   0.1800000   0.1800000   0.1800000), wk =   0.0039841
        k(  184) = (   0.1700000   0.1700000   0.1700000), wk =   0.0039841
        k(  185) = (   0.1600000   0.1600000   0.1600000), wk =   0.0039841
        k(  186) = (   0.1500000   0.1500000   0.1500000), wk =   0.0039841
        k(  187) = (   0.1400000   0.1400000   0.1400000), wk =   0.0039841
        k(  188) = (   0.1300000   0.1300000   0.1300000), wk =   0.0039841
        k(  189) = (   0.1200000   0.1200000   0.1200000), wk =   0.0039841
        k(  190) = (   0.1100000   0.1100000   0.1100000), wk =   0.0039841
        k(  191) = (   0.1000000   0.1000000   0.1000000), wk =   0.0039841
        k(  192) = (   0.0900000   0.0900000   0.0900000), wk =   0.0039841
        k(  193) = (   0.0800000   0.0800000   0.0800000), wk =   0.0039841
        k(  194) = (   0.0700000   0.0700000   0.0700000), wk =   0.0039841
        k(  195) = (   0.0600000   0.0600000   0.0600000), wk =   0.0039841
        k(  196) = (   0.0500000   0.0500000   0.0500000), wk =   0.0039841
        k(  197) = (   0.0400000   0.0400000   0.0400000), wk =   0.0039841
        k(  198) = (   0.0300000   0.0300000   0.0300000), wk =   0.0039841
        k(  199) = (   0.0200000   0.0200000   0.0200000), wk =   0.0039841
        k(  200) = (   0.0100000   0.0100000   0.0100000), wk =   0.0039841
        k(  201) = (   0.0000000   0.0000000   0.0000000), wk =   0.0039841
        k(  202) = (   0.0100000   0.0100000   0.0000000), wk =   0.0039841
        k(  203) = (   0.0200000   0.0200000   0.0000000), wk =   0.0039841
        k(  204) = (   0.0300000   0.0300000   0.0000000), wk =   0.0039841
        k(  205) = (   0.0400000   0.0400000   0.0000000), wk =   0.0039841
        k(  206) = (   0.0500000   0.0500000   0.0000000), wk =   0.0039841
        k(  207) = (   0.0600000   0.0600000   0.0000000), wk =   0.0039841
        k(  208) = (   0.0700000   0.0700000   0.0000000), wk =   0.0039841
        k(  209) = (   0.0800000   0.0800000   0.0000000), wk =   0.0039841
        k(  210) = (   0.0900000   0.0900000   0.0000000), wk =   0.0039841
        k(  211) = (   0.1000000   0.1000000   0.0000000), wk =   0.0039841
        k(  212) = (   0.1100000   0.1100000   0.0000000), wk =   0.0039841
        k(  213) = (   0.1200000   0.1200000   0.0000000), wk =   0.0039841
        k(  214) = (   0.1300000   0.1300000   0.0000000), wk =   0.0039841
        k(  215) = (   0.1400000   0.1400000   0.0000000), wk =   0.0039841
        k(  216) = (   0.1500000   0.1500000   0.0000000), wk =   0.0039841
        k(  217) = (   0.1600000   0.1600000   0.0000000), wk =   0.0039841
        k(  218) = (   0.1700000   0.1700000   0.0000000), wk =   0.0039841
        k(  219) = (   0.1800000   0.1800000   0.0000000), wk =   0.0039841
        k(  220) = (   0.1900000   0.1900000   0.0000000), wk =   0.0039841
        k(  221) = (   0.2000000   0.2000000   0.0000000), wk =   0.0039841
        k(  222) = (   0.2100000   0.2100000   0.0000000), wk =   0.0039841
        k(  223) = (   0.2200000   0.2200000   0.0000000), wk =   0.0039841
        k(  224) = (   0.2300000   0.2300000   0.0000000), wk =   0.0039841
        k(  225) = (   0.2400000   0.2400000   0.0000000), wk =   0.0039841
        k(  226) = (   0.2500000   0.2500000   0.0000000), wk =   0.0039841
        k(  227) = (   0.2600000   0.2600000   0.0000000), wk =   0.0039841
        k(  228) = (   0.2700000   0.2700000   0.0000000), wk =   0.0039841
        k(  229) = (   0.2800000   0.2800000   0.0000000), wk =   0.0039841
        k(  230) = (   0.2900000   0.2900000   0.0000000), wk =   0.0039841
        k(  231) = (   0.3000000   0.3000000   0.0000000), wk =   0.0039841
        k(  232) = (   0.3100000   0.3100000   0.0000000), wk =   0.0039841
        k(  233) = (   0.3200000   0.3200000   0.0000000), wk =   0.0039841
        k(  234) = (   0.3300000   0.3300000   0.0000000), wk =   0.0039841
        k(  235) = (   0.3400000   0.3400000   0.0000000), wk =   0.0039841
        k(  236) = (   0.3500000   0.3500000   0.0000000), wk =   0.0039841
        k(  237) = (   0.3600000   0.3600000   0.0000000), wk =   0.0039841
        k(  238) = (   0.3700000   0.3700000   0.0000000), wk =   0.0039841
        k(  239) = (   0.3800000   0.3800000   0.0000000), wk =   0.0039841
        k(  240) = (   0.3900000   0.3900000   0.0000000), wk =   0.0039841
        k(  241) = (   0.4000000   0.4000000   0.0000000), wk =   0.0039841
        k(  242) = (   0.4100000   0.4100000   0.0000000), wk =   0.0039841
        k(  243) = (   0.4200000   0.4200000   0.0000000), wk =   0.0039841
        k(  244) = (   0.4300000   0.4300000   0.0000000), wk =   0.0039841
        k(  245) = (   0.4400000   0.4400000   0.0000000), wk =   0.0039841
        k(  246) = (   0.4500000   0.4500000   0.0000000), wk =   0.0039841
        k(  247) = (   0.4600000   0.4600000   0.0000000), wk =   0.0039841
        k(  248) = (   0.4700000   0.4700000   0.0000000), wk =   0.0039841
        k(  249) = (   0.4800000   0.4800000   0.0000000), wk =   0.0039841
        k(  250) = (   0.4900000   0.4900000   0.0000000), wk =   0.0039841
        k(  251) = (   0.5000000   0.5000000   0.0000000), wk =   0.0039841

                       cryst. coord.
        k(    1) = (   0.0000000   0.0000000   0.0000000), wk =   0.0039841
        k(    2) = (   0.0000000   0.0100000   0.0000000), wk =   0.0039841
        k(    3) = (   0.0000000   0.0200000   0.0000000), wk =   0.0039841
        k(    4) = (   0.0000000   0.0300000   0.0000000), wk =   0.0039841
        k(    5) = (   0.0000000   0.0400000   0.0000000), wk =   0.0039841
        k(    6) = (   0.0000000   0.0500000   0.0000000), wk =   0.0039841
        k(    7) = (   0.0000000   0.0600000   0.0000000), wk =   0.0039841
        k(    8) = (   0.0000000   0.0700000   0.0000000), wk =   0.0039841
        k(    9) = (   0.0000000   0.0800000   0.0000000), wk =   0.0039841
        k(   10) = (   0.0000000   0.0900000   0.0000000), wk =   0.0039841
        k(   11) = (   0.0000000   0.1000000   0.0000000), wk =   0.0039841
        k(   12) = (   0.0000000   0.1100000   0.0000000), wk =   0.0039841
        k(   13) = (   0.0000000   0.1200000   0.0000000), wk =   0.0039841
        k(   14) = (   0.0000000   0.1300000   0.0000000), wk =   0.0039841
        k(   15) = (   0.0000000   0.1400000   0.0000000), wk =   0.0039841
        k(   16) = (   0.0000000   0.1500000   0.0000000), wk =   0.0039841
        k(   17) = (   0.0000000   0.1600000   0.0000000), wk =   0.0039841
        k(   18) = (   0.0000000   0.1700000   0.0000000), wk =   0.0039841
        k(   19) = (   0.0000000   0.1800000   0.0000000), wk =   0.0039841
        k(   20) = (   0.0000000   0.1900000   0.0000000), wk =   0.0039841
        k(   21) = (   0.0000000   0.2000000   0.0000000), wk =   0.0039841
        k(   22) = (   0.0000000   0.2100000   0.0000000), wk =   0.0039841
        k(   23) = (   0.0000000   0.2200000   0.0000000), wk =   0.0039841
        k(   24) = (   0.0000000   0.2300000   0.0000000), wk =   0.0039841
        k(   25) = (   0.0000000   0.2400000   0.0000000), wk =   0.0039841
        k(   26) = (   0.0000000   0.2500000   0.0000000), wk =   0.0039841
        k(   27) = (   0.0000000   0.2600000   0.0000000), wk =   0.0039841
        k(   28) = (   0.0000000   0.2700000   0.0000000), wk =   0.0039841
        k(   29) = (   0.0000000   0.2800000   0.0000000), wk =   0.0039841
        k(   30) = (   0.0000000   0.2900000   0.0000000), wk =   0.0039841
        k(   31) = (   0.0000000   0.3000000   0.0000000), wk =   0.0039841
        k(   32) = (   0.0000000   0.3100000   0.0000000), wk =   0.0039841
        k(   33) = (   0.0000000   0.3200000   0.0000000), wk =   0.0039841
        k(   34) = (   0.0000000   0.3300000   0.0000000), wk =   0.0039841
        k(   35) = (   0.0000000   0.3400000   0.0000000), wk =   0.0039841
        k(   36) = (   0.0000000   0.3500000   0.0000000), wk =   0.0039841
        k(   37) = (   0.0000000   0.3600000   0.0000000), wk =   0.0039841
        k(   38) = (   0.0000000   0.3700000   0.0000000), wk =   0.0039841
        k(   39) = (   0.0000000   0.3800000   0.0000000), wk =   0.0039841
        k(   40) = (   0.0000000   0.3900000   0.0000000), wk =   0.0039841
        k(   41) = (   0.0000000   0.4000000   0.0000000), wk =   0.0039841
        k(   42) = (   0.0000000   0.4100000   0.0000000), wk =   0.0039841
        k(   43) = (   0.0000000   0.4200000   0.0000000), wk =   0.0039841
        k(   44) = (   0.0000000   0.4300000   0.0000000), wk =   0.0039841
        k(   45) = (   0.0000000   0.4400000   0.0000000), wk =   0.0039841
        k(   46) = (   0.0000000   0.4500000   0.0000000), wk =   0.0039841
        k(   47) = (   0.0000000   0.4600000   0.0000000), wk =   0.0039841
        k(   48) = (   0.0000000   0.4700000   0.0000000), wk =   0.0039841
        k(   49) = (   0.0000000   0.4800000   0.0000000), wk =   0.0039841
        k(   50) = (   0.0000000   0.4900000   0.0000000), wk =   0.0039841
        k(   51) = (   0.0000000   0.5000000   0.0000000), wk =   0.0039841
        k(   52) = (   0.0100000   0.5000000   0.0000000), wk =   0.0039841
        k(   53) = (   0.0200000   0.5000000   0.0000000), wk =   0.0039841
        k(   54) = (   0.0300000   0.5000000   0.0000000), wk =   0.0039841
        k(   55) = (   0.0400000   0.5000000   0.0000000), wk =   0.0039841
        k(   56) = (   0.0500000   0.5000000   0.0000000), wk =   0.0039841
        k(   57) = (   0.0600000   0.5000000   0.0000000), wk =   0.0039841
        k(   58) = (   0.0700000   0.5000000   0.0000000), wk =   0.0039841
        k(   59) = (   0.0800000   0.5000000   0.0000000), wk =   0.0039841
        k(   60) = (   0.0900000   0.5000000   0.0000000), wk =   0.0039841
        k(   61) = (   0.1000000   0.5000000   0.0000000), wk =   0.0039841
        k(   62) = (   0.1100000   0.5000000   0.0000000), wk =   0.0039841
        k(   63) = (   0.1200000   0.5000000   0.0000000), wk =   0.0039841
        k(   64) = (   0.1300000   0.5000000   0.0000000), wk =   0.0039841
        k(   65) = (   0.1400000   0.5000000   0.0000000), wk =   0.0039841
        k(   66) = (   0.1500000   0.5000000   0.0000000), wk =   0.0039841
        k(   67) = (   0.1600000   0.5000000   0.0000000), wk =   0.0039841
        k(   68) = (   0.1700000   0.5000000   0.0000000), wk =   0.0039841
        k(   69) = (   0.1800000   0.5000000   0.0000000), wk =   0.0039841
        k(   70) = (   0.1900000   0.5000000   0.0000000), wk =   0.0039841
        k(   71) = (   0.2000000   0.5000000   0.0000000), wk =   0.0039841
        k(   72) = (   0.2100000   0.5000000   0.0000000), wk =   0.0039841
        k(   73) = (   0.2200000   0.5000000   0.0000000), wk =   0.0039841
        k(   74) = (   0.2300000   0.5000000   0.0000000), wk =   0.0039841
        k(   75) = (   0.2400000   0.5000000   0.0000000), wk =   0.0039841
        k(   76) = (   0.2500000   0.5000000   0.0000000), wk =   0.0039841
        k(   77) = (   0.2600000   0.5000000   0.0000000), wk =   0.0039841
        k(   78) = (   0.2700000   0.5000000   0.0000000), wk =   0.0039841
        k(   79) = (   0.2800000   0.5000000   0.0000000), wk =   0.0039841
        k(   80) = (   0.2900000   0.5000000   0.0000000), wk =   0.0039841
        k(   81) = (   0.3000000   0.5000000   0.0000000), wk =   0.0039841
        k(   82) = (   0.3100000   0.5000000   0.0000000), wk =   0.0039841
        k(   83) = (   0.3200000   0.5000000   0.0000000), wk =   0.0039841
        k(   84) = (   0.3300000   0.5000000   0.0000000), wk =   0.0039841
        k(   85) = (   0.3400000   0.5000000   0.0000000), wk =   0.0039841
        k(   86) = (   0.3500000   0.5000000   0.0000000), wk =   0.0039841
        k(   87) = (   0.3600000   0.5000000   0.0000000), wk =   0.0039841
        k(   88) = (   0.3700000   0.5000000   0.0000000), wk =   0.0039841
        k(   89) = (   0.3800000   0.5000000   0.0000000), wk =   0.0039841
        k(   90) = (   0.3900000   0.5000000   0.0000000), wk =   0.0039841
        k(   91) = (   0.4000000   0.5000000   0.0000000), wk =   0.0039841
        k(   92) = (   0.4100000   0.5000000   0.0000000), wk =   0.0039841
        k(   93) = (   0.4200000   0.5000000   0.0000000), wk =   0.0039841
        k(   94) = (   0.4300000   0.5000000   0.0000000), wk =   0.0039841
        k(   95) = (   0.4400000   0.5000000   0.0000000), wk =   0.0039841
        k(   96) = (   0.4500000   0.5000000   0.0000000), wk =   0.0039841
        k(   97) = (   0.4600000   0.5000000   0.0000000), wk =   0.0039841
        k(   98) = (   0.4700000   0.5000000   0.0000000), wk =   0.0039841
        k(   99) = (   0.4800000   0.5000000   0.0000000), wk =   0.0039841
        k(  100) = (   0.4900000   0.5000000   0.0000000), wk =   0.0039841
        k(  101) = (   0.5000000   0.5000000   0.0000000), wk =   0.0039841
        k(  102) = (   0.5000000   0.5000000   0.0100000), wk =   0.0039841
        k(  103) = (   0.5000000   0.5000000   0.0200000), wk =   0.0039841
        k(  104) = (   0.5000000   0.5000000   0.0300000), wk =   0.0039841
        k(  105) = (   0.5000000   0.5000000   0.0400000), wk =   0.0039841
        k(  106) = (   0.5000000   0.5000000   0.0500000), wk =   0.0039841
        k(  107) = (   0.5000000   0.5000000   0.0600000), wk =   0.0039841
        k(  108) = (   0.5000000   0.5000000   0.0700000), wk =   0.0039841
        k(  109) = (   0.5000000   0.5000000   0.0800000), wk =   0.0039841
        k(  110) = (   0.5000000   0.5000000   0.0900000), wk =   0.0039841
        k(  111) = (   0.5000000   0.5000000   0.1000000), wk =   0.0039841
        k(  112) = (   0.5000000   0.5000000   0.1100000), wk =   0.0039841
        k(  113) = (   0.5000000   0.5000000   0.1200000), wk =   0.0039841
        k(  114) = (   0.5000000   0.5000000   0.1300000), wk =   0.0039841
        k(  115) = (   0.5000000   0.5000000   0.1400000), wk =   0.0039841
        k(  116) = (   0.5000000   0.5000000   0.1500000), wk =   0.0039841
        k(  117) = (   0.5000000   0.5000000   0.1600000), wk =   0.0039841
        k(  118) = (   0.5000000   0.5000000   0.1700000), wk =   0.0039841
        k(  119) = (   0.5000000   0.5000000   0.1800000), wk =   0.0039841
        k(  120) = (   0.5000000   0.5000000   0.1900000), wk =   0.0039841
        k(  121) = (   0.5000000   0.5000000   0.2000000), wk =   0.0039841
        k(  122) = (   0.5000000   0.5000000   0.2100000), wk =   0.0039841
        k(  123) = (   0.5000000   0.5000000   0.2200000), wk =   0.0039841
        k(  124) = (   0.5000000   0.5000000   0.2300000), wk =   0.0039841
        k(  125) = (   0.5000000   0.5000000   0.2400000), wk =   0.0039841
        k(  126) = (   0.5000000   0.5000000   0.2500000), wk =   0.0039841
        k(  127) = (   0.5000000   0.5000000   0.2600000), wk =   0.0039841
        k(  128) = (   0.5000000   0.5000000   0.2700000), wk =   0.0039841
        k(  129) = (   0.5000000   0.5000000   0.2800000), wk =   0.0039841
        k(  130) = (   0.5000000   0.5000000   0.2900000), wk =   0.0039841
        k(  131) = (   0.5000000   0.5000000   0.3000000), wk =   0.0039841
        k(  132) = (   0.5000000   0.5000000   0.3100000), wk =   0.0039841
        k(  133) = (   0.5000000   0.5000000   0.3200000), wk =   0.0039841
        k(  134) = (   0.5000000   0.5000000   0.3300000), wk =   0.0039841
        k(  135) = (   0.5000000   0.5000000   0.3400000), wk =   0.0039841
        k(  136) = (   0.5000000   0.5000000   0.3500000), wk =   0.0039841
        k(  137) = (   0.5000000   0.5000000   0.3600000), wk =   0.0039841
        k(  138) = (   0.5000000   0.5000000   0.3700000), wk =   0.0039841
        k(  139) = (   0.5000000   0.5000000   0.3800000), wk =   0.0039841
        k(  140) = (   0.5000000   0.5000000   0.3900000), wk =   0.0039841
        k(  141) = (   0.5000000   0.5000000   0.4000000), wk =   0.0039841
        k(  142) = (   0.5000000   0.5000000   0.4100000), wk =   0.0039841
        k(  143) = (   0.5000000   0.5000000   0.4200000), wk =   0.0039841
        k(  144) = (   0.5000000   0.5000000   0.4300000), wk =   0.0039841
        k(  145) = (   0.5000000   0.5000000   0.4400000), wk =   0.0039841
        k(  146) = (   0.5000000   0.5000000   0.4500000), wk =   0.0039841
        k(  147) = (   0.5000000   0.5000000   0.4600000), wk =   0.0039841
        k(  148) = (   0.5000000   0.5000000   0.4700000), wk =   0.0039841
        k(  149) = (   0.5000000   0.5000000   0.4800000), wk =   0.0039841
        k(  150) = (   0.5000000   0.5000000   0.4900000), wk =   0.0039841
        k(  151) = (   0.5000000   0.5000000   0.5000000), wk =   0.0039841
        k(  152) = (   0.4900000   0.4900000   0.4900000), wk =   0.0039841
        k(  153) = (   0.4800000   0.4800000   0.4800000), wk =   0.0039841
        k(  154) = (   0.4700000   0.4700000   0.4700000), wk =   0.0039841
        k(  155) = (   0.4600000   0.4600000   0.4600000), wk =   0.0039841
        k(  156) = (   0.4500000   0.4500000   0.4500000), wk =   0.0039841
        k(  157) = (   0.4400000   0.4400000   0.4400000), wk =   0.0039841
        k(  158) = (   0.4300000   0.4300000   0.4300000), wk =   0.0039841
        k(  159) = (   0.4200000   0.4200000   0.4200000), wk =   0.0039841
        k(  160) = (   0.4100000   0.4100000   0.4100000), wk =   0.0039841
        k(  161) = (   0.4000000   0.4000000   0.4000000), wk =   0.0039841
        k(  162) = (   0.3900000   0.3900000   0.3900000), wk =   0.0039841
        k(  163) = (   0.3800000   0.3800000   0.3800000), wk =   0.0039841
        k(  164) = (   0.3700000   0.3700000   0.3700000), wk =   0.0039841
        k(  165) = (   0.3600000   0.3600000   0.3600000), wk =   0.0039841
        k(  166) = (   0.3500000   0.3500000   0.3500000), wk =   0.0039841
        k(  167) = (   0.3400000   0.3400000   0.3400000), wk =   0.0039841
        k(  168) = (   0.3300000   0.3300000   0.3300000), wk =   0.0039841
        k(  169) = (   0.3200000   0.3200000   0.3200000), wk =   0.0039841
        k(  170) = (   0.3100000   0.3100000   0.3100000), wk =   0.0039841
        k(  171) = (   0.3000000   0.3000000   0.3000000), wk =   0.0039841
        k(  172) = (   0.2900000   0.2900000   0.2900000), wk =   0.0039841
        k(  173) = (   0.2800000   0.2800000   0.2800000), wk =   0.0039841
        k(  174) = (   0.2700000   0.2700000   0.2700000), wk =   0.0039841
        k(  175) = (   0.2600000   0.2600000   0.2600000), wk =   0.0039841
        k(  176) = (   0.2500000   0.2500000   0.2500000), wk =   0.0039841
        k(  177) = (   0.2400000   0.2400000   0.2400000), wk =   0.0039841
        k(  178) = (   0.2300000   0.2300000   0.2300000), wk =   0.0039841
        k(  179) = (   0.2200000   0.2200000   0.2200000), wk =   0.0039841
        k(  180) = (   0.2100000   0.2100000   0.2100000), wk =   0.0039841
        k(  181) = (   0.2000000   0.2000000   0.2000000), wk =   0.0039841
        k(  182) = (   0.1900000   0.1900000   0.1900000), wk =   0.0039841
        k(  183) = (   0.1800000   0.1800000   0.1800000), wk =   0.0039841
        k(  184) = (   0.1700000   0.1700000   0.1700000), wk =   0.0039841
        k(  185) = (   0.1600000   0.1600000   0.1600000), wk =   0.0039841
        k(  186) = (   0.1500000   0.1500000   0.1500000), wk =   0.0039841
        k(  187) = (   0.1400000   0.1400000   0.1400000), wk =   0.0039841
        k(  188) = (   0.1300000   0.1300000   0.1300000), wk =   0.0039841
        k(  189) = (   0.1200000   0.1200000   0.1200000), wk =   0.0039841
        k(  190) = (   0.1100000   0.1100000   0.1100000), wk =   0.0039841
        k(  191) = (   0.1000000   0.1000000   0.1000000), wk =   0.0039841
        k(  192) = (   0.0900000   0.0900000   0.0900000), wk =   0.0039841
        k(  193) = (   0.0800000   0.0800000   0.0800000), wk =   0.0039841
        k(  194) = (   0.0700000   0.0700000   0.0700000), wk =   0.0039841
        k(  195) = (   0.0600000   0.0600000   0.0600000), wk =   0.0039841
        k(  196) = (   0.0500000   0.0500000   0.0500000), wk =   0.0039841
        k(  197) = (   0.0400000   0.0400000   0.0400000), wk =   0.0039841
        k(  198) = (   0.0300000   0.0300000   0.0300000), wk =   0.0039841
        k(  199) = (   0.0200000   0.0200000   0.0200000), wk =   0.0039841
        k(  200) = (   0.0100000   0.0100000   0.0100000), wk =   0.0039841
        k(  201) = (   0.0000000   0.0000000   0.0000000), wk =   0.0039841
        k(  202) = (   0.0100000   0.0100000   0.0000000), wk =   0.0039841
        k(  203) = (   0.0200000   0.0200000   0.0000000), wk =   0.0039841
        k(  204) = (   0.0300000   0.0300000   0.0000000), wk =   0.0039841
        k(  205) = (   0.0400000   0.0400000   0.0000000), wk =   0.0039841
        k(  206) = (   0.0500000   0.0500000   0.0000000), wk =   0.0039841
        k(  207) = (   0.0600000   0.0600000   0.0000000), wk =   0.0039841
        k(  208) = (   0.0700000   0.0700000   0.0000000), wk =   0.0039841
        k(  209) = (   0.0800000   0.0800000   0.0000000), wk =   0.0039841
        k(  210) = (   0.0900000   0.0900000   0.0000000), wk =   0.0039841
        k(  211) = (   0.1000000   0.1000000   0.0000000), wk =   0.0039841
        k(  212) = (   0.1100000   0.1100000   0.0000000), wk =   0.0039841
        k(  213) = (   0.1200000   0.1200000   0.0000000), wk =   0.0039841
        k(  214) = (   0.1300000   0.1300000   0.0000000), wk =   0.0039841
        k(  215) = (   0.1400000   0.1400000   0.0000000), wk =   0.0039841
        k(  216) = (   0.1500000   0.1500000   0.0000000), wk =   0.0039841
        k(  217) = (   0.1600000   0.1600000   0.0000000), wk =   0.0039841
        k(  218) = (   0.1700000   0.1700000   0.0000000), wk =   0.0039841
        k(  219) = (   0.1800000   0.1800000   0.0000000), wk =   0.0039841
        k(  220) = (   0.1900000   0.1900000   0.0000000), wk =   0.0039841
        k(  221) = (   0.2000000   0.2000000   0.0000000), wk =   0.0039841
        k(  222) = (   0.2100000   0.2100000   0.0000000), wk =   0.0039841
        k(  223) = (   0.2200000   0.2200000   0.0000000), wk =   0.0039841
        k(  224) = (   0.2300000   0.2300000   0.0000000), wk =   0.0039841
        k(  225) = (   0.2400000   0.2400000   0.0000000), wk =   0.0039841
        k(  226) = (   0.2500000   0.2500000   0.0000000), wk =   0.0039841
        k(  227) = (   0.2600000   0.2600000   0.0000000), wk =   0.0039841
        k(  228) = (   0.2700000   0.2700000   0.0000000), wk =   0.0039841
        k(  229) = (   0.2800000   0.2800000   0.0000000), wk =   0.0039841
        k(  230) = (   0.2900000   0.2900000   0.0000000), wk =   0.0039841
        k(  231) = (   0.3000000   0.3000000   0.0000000), wk =   0.0039841
        k(  232) = (   0.3100000   0.3100000   0.0000000), wk =   0.0039841
        k(  233) = (   0.3200000   0.3200000   0.0000000), wk =   0.0039841
        k(  234) = (   0.3300000   0.3300000   0.0000000), wk =   0.0039841
        k(  235) = (   0.3400000   0.3400000   0.0000000), wk =   0.0039841
        k(  236) = (   0.3500000   0.3500000   0.0000000), wk =   0.0039841
        k(  237) = (   0.3600000   0.3600000   0.0000000), wk =   0.0039841
        k(  238) = (   0.3700000   0.3700000   0.0000000), wk =   0.0039841
        k(  239) = (   0.3800000   0.3800000   0.0000000), wk =   0.0039841
        k(  240) = (   0.3900000   0.3900000   0.0000000), wk =   0.0039841
        k(  241) = (   0.4000000   0.4000000   0.0000000), wk =   0.0039841
        k(  242) = (   0.4100000   0.4100000   0.0000000), wk =   0.0039841
        k(  243) = (   0.4200000   0.4200000   0.0000000), wk =   0.0039841
        k(  244) = (   0.4300000   0.4300000   0.0000000), wk =   0.0039841
        k(  245) = (   0.4400000   0.4400000   0.0000000), wk =   0.0039841
        k(  246) = (   0.4500000   0.4500000   0.0000000), wk =   0.0039841
        k(  247) = (   0.4600000   0.4600000   0.0000000), wk =   0.0039841
        k(  248) = (   0.4700000   0.4700000   0.0000000), wk =   0.0039841
        k(  249) = (   0.4800000   0.4800000   0.0000000), wk =   0.0039841
        k(  250) = (   0.4900000   0.4900000   0.0000000), wk =   0.0039841
        k(  251) = (   0.5000000   0.5000000   0.0000000), wk =   0.0039841

     Dense  grid:  1110621 G-vectors     FFT dimensions: ( 135, 135, 135)

     Smooth grid:   392615 G-vectors     FFT dimensions: (  96,  96,  96)

     Dynamical RAM for                 wfc:     107.83 MB

     Dynamical RAM for     wfc (w. buffer):     107.83 MB

     Dynamical RAM for           str. fact:      11.30 MB

     Dynamical RAM for           local pot:       0.00 MB

     Dynamical RAM for          nlocal pot:     110.82 MB

     Dynamical RAM for                qrad:      24.70 MB

     Dynamical RAM for          rho,v,vnew:      72.27 MB

     Dynamical RAM for           G-vectors:      11.09 MB

     Dynamical RAM for          h,s,v(r/c):       8.54 MB

     Dynamical RAM for          <psi|beta>:      11.71 MB

     Dynamical RAM for                 psi:     215.66 MB

     Dynamical RAM for                hpsi:     215.66 MB

     Dynamical RAM for                spsi:     215.66 MB

     Dynamical RAM for      wfcinit/wfcrot:     166.02 MB

     Dynamical RAM for           addusdens:     317.27 MB

     Estimated static dynamical RAM per process >     377.72 MB

     Estimated max dynamical RAM per process >       1.02 GB

     Estimated total dynamical RAM >      36.74 GB

     The potential is recalculated from file :
     ./out/bpbo.save/charge-density

     Starting wfcs are  416 randomized atomic wfcs +   16 random wfcs

     Band Structure Calculation
     Davidson diagonalization with overlap

     Computing kpt #:     1  of    42 on this pool
     c_bands: 17 eigenvalues not converged
     total cpu time spent up to now is      993.3 secs

     Computing kpt #:     2  of    42 on this pool
     c_bands: 18 eigenvalues not converged
     total cpu time spent up to now is     1977.3 secs

     Computing kpt #:     3  of    42 on this pool
     c_bands: 19 eigenvalues not converged
     total cpu time spent up to now is     2962.2 secs

     Computing kpt #:     4  of    42 on this pool
     c_bands: 20 eigenvalues not converged
     total cpu time spent up to now is     3945.1 secs

     Computing kpt #:     5  of    42 on this pool
     c_bands: 19 eigenvalues not converged
     total cpu time spent up to now is     4926.4 secs

     Computing kpt #:     6  of    42 on this pool
     c_bands: 19 eigenvalues not converged
     total cpu time spent up to now is     5907.0 secs

     Computing kpt #:     7  of    42 on this pool
     c_bands: 17 eigenvalues not converged
     total cpu time spent up to now is     6886.0 secs

     Computing kpt #:     8  of    42 on this pool
     c_bands: 16 eigenvalues not converged
     total cpu time spent up to now is     7863.3 secs

     Computing kpt #:     9  of    42 on this pool
     c_bands: 16 eigenvalues not converged
     total cpu time spent up to now is     8837.3 secs

     Computing kpt #:    10  of    42 on this pool
     c_bands: 18 eigenvalues not converged
     total cpu time spent up to now is     9811.8 secs

     Computing kpt #:    11  of    42 on this pool
     c_bands: 18 eigenvalues not converged
     total cpu time spent up to now is    10788.2 secs

     Computing kpt #:    12  of    42 on this pool
     c_bands: 18 eigenvalues not converged
     total cpu time spent up to now is    11760.8 secs

     Computing kpt #:    13  of    42 on this pool
     c_bands: 16 eigenvalues not converged
     total cpu time spent up to now is    12729.4 secs

     Computing kpt #:    14  of    42 on this pool
     c_bands: 16 eigenvalues not converged
     total cpu time spent up to now is    13702.5 secs

     Computing kpt #:    15  of    42 on this pool
     c_bands: 20 eigenvalues not converged
     total cpu time spent up to now is    14672.5 secs

     Computing kpt #:    16  of    42 on this pool
     c_bands: 18 eigenvalues not converged
     total cpu time spent up to now is    15642.5 secs

     Computing kpt #:    17  of    42 on this pool
     c_bands: 18 eigenvalues not converged
     total cpu time spent up to now is    16611.4 secs

     Computing kpt #:    18  of    42 on this pool
     c_bands: 18 eigenvalues not converged
     total cpu time spent up to now is    17581.3 secs

     Computing kpt #:    19  of    42 on this pool
     c_bands: 18 eigenvalues not converged
     total cpu time spent up to now is    18548.9 secs

     Computing kpt #:    20  of    42 on this pool
     c_bands: 17 eigenvalues not converged
     total cpu time spent up to now is    19530.7 secs

     Computing kpt #:    21  of    42 on this pool
     c_bands: 16 eigenvalues not converged
     total cpu time spent up to now is    20510.6 secs

     Computing kpt #:    22  of    42 on this pool
     c_bands: 16 eigenvalues not converged
     total cpu time spent up to now is    21490.2 secs

     Computing kpt #:    23  of    42 on this pool
     c_bands: 16 eigenvalues not converged
     total cpu time spent up to now is    22472.2 secs

     Computing kpt #:    24  of    42 on this pool
     c_bands: 17 eigenvalues not converged
     total cpu time spent up to now is    23451.9 secs

     Computing kpt #:    25  of    42 on this pool
     c_bands: 15 eigenvalues not converged
     total cpu time spent up to now is    24434.5 secs

     Computing kpt #:    26  of    42 on this pool
     c_bands: 15 eigenvalues not converged
     total cpu time spent up to now is    25415.6 secs

     Computing kpt #:    27  of    42 on this pool
     c_bands: 15 eigenvalues not converged
     total cpu time spent up to now is    26390.9 secs

     Computing kpt #:    28  of    42 on this pool
     c_bands: 16 eigenvalues not converged
     total cpu time spent up to now is    27372.0 secs

     Computing kpt #:    29  of    42 on this pool
     c_bands: 16 eigenvalues not converged
     total cpu time spent up to now is    28352.3 secs

     Computing kpt #:    30  of    42 on this pool
     c_bands: 16 eigenvalues not converged
     total cpu time spent up to now is    29340.7 secs

     Computing kpt #:    31  of    42 on this pool
     c_bands: 16 eigenvalues not converged
     total cpu time spent up to now is    30329.2 secs

     Computing kpt #:    32  of    42 on this pool
     c_bands: 18 eigenvalues not converged
     total cpu time spent up to now is    31318.3 secs

     Computing kpt #:    33  of    42 on this pool
     c_bands: 20 eigenvalues not converged
     total cpu time spent up to now is    32301.2 secs

     Computing kpt #:    34  of    42 on this pool
     c_bands: 19 eigenvalues not converged
     total cpu time spent up to now is    33283.8 secs

     Computing kpt #:    35  of    42 on this pool
     c_bands: 19 eigenvalues not converged
     total cpu time spent up to now is    34267.3 secs

     Computing kpt #:    36  of    42 on this pool
     c_bands: 20 eigenvalues not converged
     total cpu time spent up to now is    35252.0 secs

     Computing kpt #:    37  of    42 on this pool
     c_bands: 20 eigenvalues not converged
     total cpu time spent up to now is    36235.4 secs

     Computing kpt #:    38  of    42 on this pool
     c_bands: 22 eigenvalues not converged
     total cpu time spent up to now is    37219.5 secs

     Computing kpt #:    39  of    42 on this pool
     c_bands: 24 eigenvalues not converged
     total cpu time spent up to now is    38204.5 secs

     Computing kpt #:    40  of    42 on this pool
     c_bands: 23 eigenvalues not converged
     total cpu time spent up to now is    39189.9 secs

     Computing kpt #:    41  of    42 on this pool
     c_bands: 22 eigenvalues not converged
     total cpu time spent up to now is    40175.0 secs

     Computing kpt #:    42  of    42 on this pool
     c_bands: 19 eigenvalues not converged
     total cpu time spent up to now is    41122.8 secs

     ethr =  1.00E-13,  avg # of iterations =120.0

     total cpu time spent up to now is    41160.6 secs

     End of band structure calculation

          k = 0.0000 0.0000 0.0000 ( 49029 PWs)   bands (ev):

   -16.7896 -16.7896 -16.7583 -16.7583 -16.7583 -16.7583 -16.7583 -16.7583
   -16.7345 -16.7345 -16.7345 -16.7345 -16.7343 -16.7343 -16.7132 -16.7132
   -14.5531 -14.5531 -14.5531 -14.5531 -14.5523 -14.5523 -14.5523 -14.5523
   -11.7479 -11.7479 -11.7479 -11.7479 -11.7466 -11.7466 -11.7466 -11.7466
   -11.4883 -11.4883 -11.4865 -11.4865  -9.0349  -9.0349  -8.9726  -8.9726
    -8.8384  -8.8384  -8.8109  -8.8109  -8.8109  -8.8109  -8.7620  -8.7620
    -8.7620  -8.7620  -8.5048  -8.5048  -8.2960  -8.2960  -8.2960  -8.2960
    -8.2281  -8.2281  -8.2281  -8.2281  -7.8238  -7.8238  -7.6974  -7.6974
    -7.6460  -7.6460  -7.6460  -7.6460  -7.6344  -7.6344  -7.5665  -7.5665
    -7.5665  -7.5665  -7.5151  -7.5151  -7.5045  -7.5045  -7.5045  -7.5045
    -7.3578  -7.3578  -7.3578  -7.3578  -7.3220  -7.3220  -7.2980  -7.2980
    -7.2502  -7.2502  -7.2502  -7.2502  -7.0825  -7.0825  -7.0483  -7.0483
    -7.0483  -7.0483  -6.7319  -6.7319  -6.7280  -6.7280  -6.7280  -6.7280
    -6.7275  -6.7275  -6.7275  -6.7275  -5.4063  -5.4063  -5.3102  -5.3102
    -5.3102  -5.3102  -5.2399  -5.2399  -5.2335  -5.2335  -5.1770  -5.1770
    -5.1770  -5.1770  -5.1574  -5.1574  -5.1574  -5.1574  -5.1377  -5.1377
    -5.0202  -5.0202  -5.0202  -5.0202  -4.8153  -4.8153  -4.1673  -4.1673
    -4.1673  -4.1673  -3.9190  -3.9190  -3.9190  -3.9190  -3.6377  -3.6377
    -3.4748  -3.4748  -3.3430  -3.3430  -3.3136  -3.3136  -3.3136  -3.3136
    -3.3073  -3.3073  -3.2469  -3.2469  -3.2441  -3.2441  -3.2441  -3.2441
    -1.5801  -1.5801  -1.5801  -1.5801  -1.4104  -1.4104  -1.3894  -1.3894
    -1.3894  -1.3894  -1.3300  -1.3300  -1.3300  -1.3300  -1.2469  -1.2469
    -1.2263  -1.2263  -1.2263  -1.2263  -1.2251  -1.2251  -1.2245  -1.2245
[...]
     0.0000   0.0000   0.0000   0.0000   0.0000   0.0000   0.0000   0.0000
     0.0000   0.0000   0.0000   0.0000   0.0000   0.0000   0.0000   0.0000
     0.0000   0.0000   0.0000   0.0000   0.0000   0.0000   0.0000   0.0000
     0.0000   0.0000   0.0000   0.0000   0.0000   0.0000   0.0000   0.0000
     0.0000   0.0000   0.0000   0.0000   0.0000   0.0000   0.0000   0.0000
     0.0000   0.0000   0.0000   0.0000   0.0000   0.0000   0.0000   0.0000
     0.0000   0.0000   0.0000   0.0000   0.0000   0.0000   0.0000   0.0000
     0.0000   0.0000   0.0000   0.0000   0.0000   0.0000   0.0000   0.0000

          k = 0.4900 0.4900 0.0000 ( 49050 PWs)   bands (ev):

   -16.7611 -16.7611 -16.7604 -16.7604 -16.7601 -16.7601 -16.7594 -16.7594
   -16.7359 -16.7359 -16.7352 -16.7352 -16.7351 -16.7351 -16.7344 -16.7344
   -14.5526 -14.5526 -14.5526 -14.5526 -14.5521 -14.5521 -14.5521 -14.5521
   -11.7453 -11.7453 -11.7453 -11.7453 -11.7415 -11.7415 -11.7415 -11.7415
   -11.4874 -11.4874 -11.4874 -11.4874  -8.7974  -8.7974  -8.7971  -8.7971
    -8.7767  -8.7767  -8.7762  -8.7762  -8.6099  -8.6099  -8.6096  -8.6096
    -8.5819  -8.5819  -8.5809  -8.5809  -8.5025  -8.5025  -8.5015  -8.5015
    -8.3558  -8.3558  -8.3543  -8.3543  -8.2252  -8.2252  -8.2226  -8.2226
    -8.1230  -8.1230  -8.1218  -8.1218  -7.6749  -7.6749  -7.6749  -7.6749
    -7.6262  -7.6262  -7.6261  -7.6261  -7.4101  -7.4101  -7.4100  -7.4100
    -7.3077  -7.3077  -7.3076  -7.3076  -6.9594  -6.9594  -6.9592  -6.9592
    -6.9328  -6.9328  -6.9314  -6.9314  -6.9286  -6.9286  -6.9280  -6.9280
    -6.8619  -6.8619  -6.8618  -6.8618  -6.7866  -6.7866  -6.7850  -6.7850
    -6.7817  -6.7817  -6.7805  -6.7805  -5.2460  -5.2460  -5.2460  -5.2460
    -5.1917  -5.1917  -5.1916  -5.1916  -5.1733  -5.1733  -5.1732  -5.1732
    -5.1544  -5.1544  -5.1544  -5.1544  -4.6774  -4.6774  -4.6744  -4.6744
    -4.6558  -4.6558  -4.6519  -4.6519  -4.6364  -4.6364  -4.6297  -4.6297
    -4.5882  -4.5882  -4.5879  -4.5879  -4.0716  -4.0716  -4.0712  -4.0712
    -3.3450  -3.3450  -3.3439  -3.3439  -3.3328  -3.3328  -3.3318  -3.3318
    -3.2816  -3.2816  -3.2815  -3.2815  -3.2763  -3.2763  -3.2762  -3.2762
    -1.4148  -1.4148  -1.4136  -1.4136  -1.3865  -1.3865  -1.3853  -1.3853
    -1.3288  -1.3288  -1.3259  -1.3259  -1.3164  -1.3164  -1.3137  -1.3137
    -1.3013  -1.3013  -1.3012  -1.3012  -1.2910  -1.2910  -1.2909  -1.2909
    -1.2259  -1.2259  -1.2258  -1.2258  -1.2075  -1.2075  -1.2074  -1.2074
    -0.2297  -0.2297  -0.2280  -0.2280   1.0460   1.0460   1.0472   1.0472
     2.1895   2.1895   2.1931   2.1931   2.5884   2.5884   2.5915   2.5915
     4.2864   4.2864   4.2866   4.2866   4.8561   4.8561   4.8563   4.8563
     5.9276   5.9276   5.9373   5.9373   6.0054   6.0054   6.0217   6.0217
     6.1663   6.1663   6.1698   6.1698   6.4092   6.4092   6.4127   6.4127
     6.6763   6.6763   6.6764   6.6764   6.6926   6.6926   6.6942   6.6942
     6.7045   6.7045   6.7050   6.7050   6.8462   6.8462   6.8473   6.8473
     6.8811   6.8811   6.8869   6.8869   7.0560   7.0560   7.0576   7.0576
     7.1660   7.1660   7.1662   7.1662   7.2603   7.2603   7.2606   7.2606
     7.3156   7.3156   7.3157   7.3157   7.3862   7.3862   7.3868   7.3868
     7.6429   7.6429   7.6430   7.6430   7.6504   7.6504   7.6512   7.6512
     7.6938   7.6938   7.6945   7.6945   7.8035   7.8035   7.8046   7.8046
     7.8493   7.8493   7.8498   7.8498   7.8721   7.8721   7.8733   7.8733
     7.9115   7.9115   7.9131   7.9131   7.9799   7.9799   7.9805   7.9805
     8.0452   8.0452   8.0460   8.0460   8.1483   8.1483   8.1511   8.1511
     8.1659   8.1659   8.1705   8.1705   8.1975   8.1975   8.2017   8.2017
     8.3339   8.3339   8.3358   8.3358   8.3664   8.3664   8.3719   8.3719
     8.3732   8.3732   8.3801   8.3801   8.4829   8.4829   8.4834   8.4834
     9.7551   9.7551   9.7643   9.7643  10.3645  10.3645  10.3708  10.3708
    11.9923  11.9923  11.9951  11.9951  12.3695  12.3695  12.3707  12.3707
    14.2029  14.2029  14.2059  14.2059  14.4709  14.4709  14.4935  14.4935
    14.5099  14.5099  14.5315  14.5315  14.7199  14.7199  14.7213  14.7213
    14.9002  14.9002  14.9279  14.9279  14.9420  14.9420  14.9539  14.9539
    14.9611  14.9611  15.0090  15.0090  15.1466  15.1466  15.1530  15.1530
    15.5048  15.5048  15.5129  15.5129  15.6670  15.6670  15.6718  15.6718
    15.7505  15.7505  15.7803  15.7803  15.7818  15.7818  15.7908  15.7908
    15.7960  15.7960  15.8090  15.8090  15.8113  15.8113  15.8208  15.8208
    16.0161  16.0161  16.0191  16.0191  16.0456  16.0456  16.0468  16.0468
    16.1428  16.1428  16.1436  16.1436  16.1678  16.1678  16.1699  16.1699
    16.3239  16.3239  16.3239  16.3239  16.5542  16.5543  16.5617  16.5619

     occupation numbers 
     1.0000   1.0000   1.0000   1.0000   1.0000   1.0000   1.0000   1.0000
     1.0000   1.0000   1.0000   1.0000   1.0000   1.0000   1.0000   1.0000
     1.0000   1.0000   1.0000   1.0000   1.0000   1.0000   1.0000   1.0000
     1.0000   1.0000   1.0000   1.0000   1.0000   1.0000   1.0000   1.0000
     1.0000   1.0000   1.0000   1.0000   1.0000   1.0000   1.0000   1.0000
     1.0000   1.0000   1.0000   1.0000   1.0000   1.0000   1.0000   1.0000
     1.0000   1.0000   1.0000   1.0000   1.0000   1.0000   1.0000   1.0000
     1.0000   1.0000   1.0000   1.0000   1.0000   1.0000   1.0000   1.0000
     1.0000   1.0000   1.0000   1.0000   1.0000   1.0000   1.0000   1.0000
     1.0000   1.0000   1.0000   1.0000   1.0000   1.0000   1.0000   1.0000
     1.0000   1.0000   1.0000   1.0000   1.0000   1.0000   1.0000   1.0000
     1.0000   1.0000   1.0000   1.0000   1.0000   1.0000   1.0000   1.0000
     1.0000   1.0000   1.0000   1.0000   1.0000   1.0000   1.0000   1.0000
     1.0000   1.0000   1.0000   1.0000   1.0000   1.0000   1.0000   1.0000
     1.0000   1.0000   1.0000   1.0000   1.0000   1.0000   1.0000   1.0000
     1.0000   1.0000   1.0000   1.0000   1.0000   1.0000   1.0000   1.0000
     1.0000   1.0000   1.0000   1.0000   1.0000   1.0000   1.0000   1.0000
     1.0000   1.0000   1.0000   1.0000   1.0000   1.0000   1.0000   1.0000
     1.0000   1.0000   1.0000   1.0000   1.0000   1.0000   1.0000   1.0000
     1.0000   1.0000   1.0000   1.0000   1.0000   1.0000   1.0000   1.0000
     1.0000   1.0000   1.0000   1.0000   1.0000   1.0000   1.0000   1.0000
     1.0000   1.0000   1.0000   1.0000   1.0000   1.0000   1.0000   1.0000
     1.0000   1.0000   1.0000   1.0000   1.0000   1.0000   1.0000   1.0000
     1.0000   1.0000   1.0000   1.0000   1.0000   1.0000   1.0000   1.0000
     1.0000   1.0000   1.0000   1.0000   1.0000   1.0000   1.0000   1.0000
     1.0000   1.0000   1.0000   1.0000   1.0000   1.0000   1.0000   1.0000
     1.0000   1.0000   1.0000   1.0000   1.0000   1.0000   1.0000   1.0000
     1.0000   1.0000   1.0000   1.0000   1.0000   1.0000   1.0000   1.0000
     1.0000   1.0000   1.0000   1.0000   1.0000   1.0000   1.0000   1.0000
     1.0000   1.0000   1.0000   1.0000   1.0000   1.0000   1.0000   1.0000
     1.0000   1.0000   1.0000   1.0000   1.0000   1.0000   1.0000   1.0000
     1.0000   1.0000   1.0000   1.0000   1.0000   1.0000   1.0000   1.0000
     1.0000   1.0000   1.0000   1.0000   1.0000   1.0000   1.0000   1.0000
     1.0000   1.0000   1.0000   1.0000   1.0000   1.0000   1.0000   1.0000
     1.0000   1.0000   1.0000   1.0000   1.0000   1.0000   1.0000   1.0000
     1.0000   1.0000   1.0000   1.0000   1.0000   1.0000   1.0000   1.0000
     1.0000   1.0000   1.0000   1.0000   1.0000   1.0000   1.0000   1.0000
     1.0000   1.0000   1.0000   1.0000   1.0000   1.0000   1.0000   1.0000
     1.0000   1.0000   1.0000   1.0000   1.0000   1.0000   1.0000   1.0000
     1.0000   1.0000   1.0000   1.0000   1.0000   1.0000   1.0000   1.0000
     1.0000   1.0000   1.0000   1.0000   1.0000   1.0000   1.0000   1.0000
     1.0000   1.0000   1.0000   1.0000   1.0000   1.0000   1.0000   1.0000
     0.1722   0.1722   0.1368   0.1368   0.0000   0.0000   0.0000   0.0000
     0.0000   0.0000   0.0000   0.0000   0.0000   0.0000   0.0000   0.0000
     0.0000   0.0000   0.0000   0.0000   0.0000   0.0000   0.0000   0.0000
     0.0000   0.0000   0.0000   0.0000   0.0000   0.0000   0.0000   0.0000
     0.0000   0.0000   0.0000   0.0000   0.0000   0.0000   0.0000   0.0000
     0.0000   0.0000   0.0000   0.0000   0.0000   0.0000   0.0000   0.0000
     0.0000   0.0000   0.0000   0.0000   0.0000   0.0000   0.0000   0.0000
     0.0000   0.0000   0.0000   0.0000   0.0000   0.0000   0.0000   0.0000
     0.0000   0.0000   0.0000   0.0000   0.0000   0.0000   0.0000   0.0000
     0.0000   0.0000   0.0000   0.0000   0.0000   0.0000   0.0000   0.0000
     0.0000   0.0000   0.0000   0.0000   0.0000   0.0000   0.0000   0.0000
     0.0000   0.0000   0.0000   0.0000   0.0000   0.0000   0.0000   0.0000

          k = 0.5000 0.5000 0.0000 ( 49056 PWs)   bands (ev):

   -16.7604 -16.7604 -16.7604 -16.7604 -16.7601 -16.7601 -16.7601 -16.7601
   -16.7352 -16.7352 -16.7352 -16.7352 -16.7351 -16.7351 -16.7351 -16.7351
   -14.5526 -14.5526 -14.5526 -14.5526 -14.5521 -14.5521 -14.5521 -14.5521
   -11.7453 -11.7453 -11.7453 -11.7453 -11.7414 -11.7414 -11.7414 -11.7414
   -11.4874 -11.4874 -11.4874 -11.4874  -8.7971  -8.7971  -8.7971  -8.7971
    -8.7761  -8.7761  -8.7761  -8.7761  -8.6098  -8.6098  -8.6098  -8.6098
    -8.5814  -8.5814  -8.5814  -8.5814  -8.5019  -8.5019  -8.5019  -8.5019
    -8.3554  -8.3554  -8.3554  -8.3554  -8.2237  -8.2237  -8.2237  -8.2237
    -8.1236  -8.1236  -8.1236  -8.1236  -7.6750  -7.6750  -7.6750  -7.6750
    -7.6261  -7.6261  -7.6261  -7.6261  -7.4100  -7.4100  -7.4100  -7.4100
    -7.3076  -7.3076  -7.3076  -7.3076  -6.9561  -6.9561  -6.9561  -6.9561
    -6.9329  -6.9329  -6.9329  -6.9329  -6.9298  -6.9298  -6.9298  -6.9298
    -6.8620  -6.8620  -6.8620  -6.8620  -6.7851  -6.7851  -6.7851  -6.7851
    -6.7818  -6.7818  -6.7818  -6.7818  -5.2460  -5.2460  -5.2460  -5.2460
    -5.1916  -5.1916  -5.1916  -5.1916  -5.1733  -5.1733  -5.1733  -5.1733
    -5.1544  -5.1544  -5.1544  -5.1544  -4.6700  -4.6700  -4.6700  -4.6700
    -4.6507  -4.6507  -4.6507  -4.6507  -4.6370  -4.6370  -4.6370  -4.6370
    -4.5926  -4.5926  -4.5926  -4.5926  -4.0718  -4.0718  -4.0718  -4.0718
    -3.3439  -3.3439  -3.3439  -3.3439  -3.3328  -3.3328  -3.3328  -3.3328
    -3.2816  -3.2816  -3.2816  -3.2816  -3.2763  -3.2763  -3.2763  -3.2763
    -1.4136  -1.4136  -1.4136  -1.4136  -1.3865  -1.3865  -1.3865  -1.3865
    -1.3259  -1.3259  -1.3259  -1.3259  -1.3164  -1.3164  -1.3164  -1.3164
    -1.3013  -1.3013  -1.3013  -1.3013  -1.2910  -1.2910  -1.2910  -1.2910
    -1.2259  -1.2259  -1.2259  -1.2259  -1.2074  -1.2074  -1.2074  -1.2074
    -0.2285  -0.2285  -0.2285  -0.2285   1.0455   1.0455   1.0455   1.0455
     2.1923   2.1923   2.1923   2.1923   2.5879   2.5879   2.5879   2.5879
     4.2866   4.2866   4.2866   4.2866   4.8562   4.8562   4.8562   4.8562
     5.9472   5.9472   5.9472   5.9472   6.0066   6.0066   6.0066   6.0066
     6.1656   6.1656   6.1656   6.1656   6.4097   6.4097   6.4097   6.4097
     6.6767   6.6767   6.6767   6.6767   6.6957   6.6957   6.6957   6.6957
     6.7021   6.7021   6.7021   6.7021   6.8476   6.8476   6.8476   6.8476
     6.8846   6.8846   6.8846   6.8846   7.0547   7.0547   7.0547   7.0547
     7.1657   7.1657   7.1657   7.1657   7.2604   7.2604   7.2604   7.2604
     7.3155   7.3155   7.3155   7.3155   7.3859   7.3859   7.3859   7.3859
     7.6429   7.6429   7.6429   7.6429   7.6511   7.6511   7.6511   7.6511
     7.6937   7.6937   7.6937   7.6937   7.8037   7.8037   7.8037   7.8037
     7.8498   7.8498   7.8498   7.8498   7.8734   7.8734   7.8734   7.8734
     7.9115   7.9115   7.9115   7.9115   7.9804   7.9804   7.9804   7.9804
     8.0465   8.0465   8.0465   8.0465   8.1494   8.1494   8.1494   8.1494
     8.1706   8.1706   8.1706   8.1706   8.1970   8.1970   8.1970   8.1970
     8.3348   8.3348   8.3348   8.3348   8.3726   8.3726   8.3726   8.3726
     8.3738   8.3738   8.3738   8.3738   8.4827   8.4827   8.4827   8.4827
     9.7629   9.7629   9.7629   9.7629  10.3631  10.3631  10.3631  10.3631
    11.9940  11.9940  11.9940  11.9940  12.3688  12.3688  12.3688  12.3688
    14.2055  14.2055  14.2055  14.2055  14.4930  14.4930  14.4930  14.4930
    14.5095  14.5095  14.5095  14.5095  14.7193  14.7193  14.7193  14.7193
    14.9354  14.9354  14.9354  14.9354  14.9575  14.9575  14.9575  14.9575
    14.9578  14.9578  14.9578  14.9578  15.1460  15.1460  15.1460  15.1460
    15.5131  15.5131  15.5131  15.5131  15.6669  15.6669  15.6669  15.6669
    15.7809  15.7809  15.7809  15.7809  15.7820  15.7820  15.7820  15.7820
    15.7972  15.7972  15.7972  15.7972  15.8084  15.8084  15.8084  15.8084
    16.0204  16.0204  16.0204  16.0204  16.0449  16.0449  16.0449  16.0449
    16.1464  16.1464  16.1464  16.1464  16.1645  16.1645  16.1645  16.1645
    16.3235  16.3235  16.3235  16.3235  16.5615  16.5615  16.5618  16.5622

     occupation numbers 
     1.0000   1.0000   1.0000   1.0000   1.0000   1.0000   1.0000   1.0000
     1.0000   1.0000   1.0000   1.0000   1.0000   1.0000   1.0000   1.0000
     1.0000   1.0000   1.0000   1.0000   1.0000   1.0000   1.0000   1.0000
     1.0000   1.0000   1.0000   1.0000   1.0000   1.0000   1.0000   1.0000
     1.0000   1.0000   1.0000   1.0000   1.0000   1.0000   1.0000   1.0000
     1.0000   1.0000   1.0000   1.0000   1.0000   1.0000   1.0000   1.0000
     1.0000   1.0000   1.0000   1.0000   1.0000   1.0000   1.0000   1.0000
     1.0000   1.0000   1.0000   1.0000   1.0000   1.0000   1.0000   1.0000
     1.0000   1.0000   1.0000   1.0000   1.0000   1.0000   1.0000   1.0000
     1.0000   1.0000   1.0000   1.0000   1.0000   1.0000   1.0000   1.0000
     1.0000   1.0000   1.0000   1.0000   1.0000   1.0000   1.0000   1.0000
     1.0000   1.0000   1.0000   1.0000   1.0000   1.0000   1.0000   1.0000
     1.0000   1.0000   1.0000   1.0000   1.0000   1.0000   1.0000   1.0000
     1.0000   1.0000   1.0000   1.0000   1.0000   1.0000   1.0000   1.0000
     1.0000   1.0000   1.0000   1.0000   1.0000   1.0000   1.0000   1.0000
     1.0000   1.0000   1.0000   1.0000   1.0000   1.0000   1.0000   1.0000
     1.0000   1.0000   1.0000   1.0000   1.0000   1.0000   1.0000   1.0000
     1.0000   1.0000   1.0000   1.0000   1.0000   1.0000   1.0000   1.0000
     1.0000   1.0000   1.0000   1.0000   1.0000   1.0000   1.0000   1.0000
     1.0000   1.0000   1.0000   1.0000   1.0000   1.0000   1.0000   1.0000
     1.0000   1.0000   1.0000   1.0000   1.0000   1.0000   1.0000   1.0000
     1.0000   1.0000   1.0000   1.0000   1.0000   1.0000   1.0000   1.0000
     1.0000   1.0000   1.0000   1.0000   1.0000   1.0000   1.0000   1.0000
     1.0000   1.0000   1.0000   1.0000   1.0000   1.0000   1.0000   1.0000
     1.0000   1.0000   1.0000   1.0000   1.0000   1.0000   1.0000   1.0000
     1.0000   1.0000   1.0000   1.0000   1.0000   1.0000   1.0000   1.0000
     1.0000   1.0000   1.0000   1.0000   1.0000   1.0000   1.0000   1.0000
     1.0000   1.0000   1.0000   1.0000   1.0000   1.0000   1.0000   1.0000
     1.0000   1.0000   1.0000   1.0000   1.0000   1.0000   1.0000   1.0000
     1.0000   1.0000   1.0000   1.0000   1.0000   1.0000   1.0000   1.0000
     1.0000   1.0000   1.0000   1.0000   1.0000   1.0000   1.0000   1.0000
     1.0000   1.0000   1.0000   1.0000   1.0000   1.0000   1.0000   1.0000
     1.0000   1.0000   1.0000   1.0000   1.0000   1.0000   1.0000   1.0000
     1.0000   1.0000   1.0000   1.0000   1.0000   1.0000   1.0000   1.0000
     1.0000   1.0000   1.0000   1.0000   1.0000   1.0000   1.0000   1.0000
     1.0000   1.0000   1.0000   1.0000   1.0000   1.0000   1.0000   1.0000
     1.0000   1.0000   1.0000   1.0000   1.0000   1.0000   1.0000   1.0000
     1.0000   1.0000   1.0000   1.0000   1.0000   1.0000   1.0000   1.0000
     1.0000   1.0000   1.0000   1.0000   1.0000   1.0000   1.0000   1.0000
     1.0000   1.0000   1.0000   1.0000   1.0000   1.0000   1.0000   1.0000
     1.0000   1.0000   1.0000   1.0000   1.0000   1.0000   1.0000   1.0000
     1.0000   1.0000   1.0000   1.0000   1.0000   1.0000   1.0000   1.0000
     0.1418   0.1418   0.1418   0.1418   0.0000   0.0000   0.0000   0.0000
     0.0000   0.0000   0.0000   0.0000   0.0000   0.0000   0.0000   0.0000
     0.0000   0.0000   0.0000   0.0000   0.0000   0.0000   0.0000   0.0000
     0.0000   0.0000   0.0000   0.0000   0.0000   0.0000   0.0000   0.0000
     0.0000   0.0000   0.0000   0.0000   0.0000   0.0000   0.0000   0.0000
     0.0000   0.0000   0.0000   0.0000   0.0000   0.0000   0.0000   0.0000
     0.0000   0.0000   0.0000   0.0000   0.0000   0.0000   0.0000   0.0000
     0.0000   0.0000   0.0000   0.0000   0.0000   0.0000   0.0000   0.0000
     0.0000   0.0000   0.0000   0.0000   0.0000   0.0000   0.0000   0.0000
     0.0000   0.0000   0.0000   0.0000   0.0000   0.0000   0.0000   0.0000
     0.0000   0.0000   0.0000   0.0000   0.0000   0.0000   0.0000   0.0000
     0.0000   0.0000   0.0000   0.0000   0.0000   0.0000   0.0000   0.0000

     the Fermi energy is     9.7143 ev
     (compare with:     9.5890 eV, computed in scf)

     Writing all to output data dir ./out/bpbo.save/ :
     XML data file, pseudopotentials, collected wavefunctions

     init_run     :      3.77s CPU      4.14s WALL (       1 calls)
     electrons    :  78255.04s CPU  41152.62s WALL (       1 calls)

     Called by init_run:
     wfcinit      :      0.00s CPU      0.00s WALL (       1 calls)
     wfcinit:atom :      2.06s CPU      2.96s WALL (      42 calls)
     wfcinit:wfcr :   1038.66s CPU    533.97s WALL (      42 calls)
     potinit      :      1.02s CPU      1.62s WALL (       1 calls)
     hinit0       :      0.53s CPU      0.47s WALL (       1 calls)

     Called by electrons:
     c_bands      :  78254.92s CPU  41152.46s WALL (       1 calls)
     v_of_rho     :      0.57s CPU      0.33s WALL (       1 calls)
     v_h          :      0.06s CPU      0.04s WALL (       1 calls)
     v_xc         :      0.51s CPU      0.29s WALL (       1 calls)
     newd         :      1.79s CPU      1.59s WALL (       1 calls)

     Called by c_bands:
     init_us_2    :      3.83s CPU      3.87s WALL (      42 calls)
     cegterg      :  76137.98s CPU  39067.04s WALL (     252 calls)

     Called by sum_band:

     Called by *egterg:
     cdiaghg      :   2344.73s CPU   1295.58s WALL (    5082 calls)
     cegterg:over :   7615.87s CPU   3887.39s WALL (    5040 calls)
     cegterg:upda :   4742.88s CPU   2479.61s WALL (    5040 calls)
     cegterg:last :  12248.80s CPU   6267.60s WALL (    2087 calls)
     cdiaghg:chol :    115.42s CPU     66.82s WALL (    5082 calls)
     cdiaghg:inve :     55.20s CPU     28.24s WALL (    5082 calls)
     cdiaghg:para :    656.24s CPU    358.85s WALL (   10164 calls)
     h_psi        :  44310.59s CPU  22600.70s WALL (    5334 calls)
     s_psi        :   4648.70s CPU   2396.98s WALL (    5334 calls)
     g_psi        :    165.71s CPU     83.32s WALL (    5040 calls)

     Called by h_psi:
     h_psi:calbec :   4515.37s CPU   2285.80s WALL (    5334 calls)
     vloc_psi     :  34962.18s CPU  17847.59s WALL (    5334 calls)
     add_vuspsi   :   4562.76s CPU   2321.97s WALL (    5334 calls)

     General routines
     calbec       :   4515.31s CPU   2285.77s WALL (    5334 calls)
     fft          :      0.64s CPU      0.36s WALL (      19 calls)
     ffts         :      0.03s CPU      0.02s WALL (       4 calls)
     fftw         :  12232.29s CPU   6376.79s WALL ( 3890668 calls)
     interpolate  :      0.20s CPU      0.11s WALL (       4 calls)
     davcio       :      0.91s CPU    860.10s WALL (      84 calls)

     Parallel routines

     PWSCF        :  78283.19s CPU  43539.24s WALL


   This run was terminated on:   2:14:52  12Nov2025            

=------------------------------------------------------------------------------=
   JOB DONE.
=------------------------------------------------------------------------------=
