
     Program PW2WANNIER v.7.3.1 starts on 13Feb2025 at 16:57: 6 

     This program is part of the open-source Quantum ESPRESSO suite
     for quantum simulation of materials; please cite
         "P. Giannozzi et al., J. Phys.:Condens. Matter 21 395502 (2009);
         "P. Giannozzi et al., J. Phys.:Condens. Matter 29 465901 (2017);
         "P. Giannozzi et al., J. Chem. Phys. 152 154105 (2020);
          URL http://www.quantum-espresso.org", 
     in publications or presentations arising from this work. More details at
     http://www.quantum-espresso.org/quote

     Parallel version (MPI & OpenMP), running on     144 processor cores
     Number of MPI processes:                72
     Threads/MPI process:                     2

     MPI processes distributed on    18 nodes
     K-points division:     npool     =      18
     R & G space division:  proc/nbgrp/npool/nimage =       4
     4616 MiB available memory on the printing compute node when the environment starts


     Reading nscf_save data

     Reading xml data from directory:

     ./out/bpbo.save/
     file Ba.rel-pbe-spn-rrkjus_psl.1.0.0.UPF: wavefunction(s)  5S 6S renormalized
     file Pb.rel-pbe-dn-rrkjus_psl.1.0.0.UPF: wavefunction(s)  6S 5D 5D renormalized
     file Bi.rel-pbe-dn-rrkjus_psl.1.0.0.UPF: wavefunction(s)  5D 5D renormalized

     IMPORTANT: XC functional enforced from input :
     Exchange-correlation= PBE
                           (   1   4   3   4   0   0   0)
     Any further DFT definition will be discarded
     Please, verify this is what you really want


     Parallelization info
     --------------------
     sticks:   dense  smooth     PW     G-vecs:    dense   smooth      PW
     Min        3263    1630    452               279971    98975   14566
     Max        3264    1632    454               279972    98976   14568
     Sum       13053    6525   1813              1119885   395903   58269

     Using Slab Decomposition

     Reading collected, re-writing distributed wavefunctions

  Spin CASE ( non-collinear )

  Wannier mode is: standalone     

  -----------------
  *** Reading nnkp 
  -----------------

  Checking info from wannier.nnkp file

  - Real lattice is ok
  - Reciprocal lattice is ok
  - K-points are ok
  - Number of wannier functions is ok (160)
  - All guiding functions are given 

  Projections:
    0.000000    0.000000    0.000000  0  1  1    1.000000
    0.000000    0.000000    0.000000  0  1  1    1.000000
    0.500000    0.500000    0.500000  0  1  1    1.000000
    0.500000    0.500000    0.500000  0  1  1    1.000000
    0.000000    0.000000    0.500000  0  1  1    1.000000
    0.000000    0.000000    0.500000  0  1  1    1.000000
    0.000000    0.500000    0.000000  0  1  1    1.000000
    0.000000    0.500000    0.000000  0  1  1    1.000000
    0.000000    0.500000    0.500000  0  1  1    1.000000
    0.000000    0.500000    0.500000  0  1  1    1.000000
    0.500000    0.000000    0.000000  0  1  1    1.000000
    0.500000    0.000000    0.000000  0  1  1    1.000000
    0.500000    0.000000    0.500000  0  1  1    1.000000
    0.500000    0.000000    0.500000  0  1  1    1.000000
    0.500000    0.500000    0.000000  0  1  1    1.000000
    0.500000    0.500000    0.000000  0  1  1    1.000000
    0.000000    0.250000    0.000000  1  1  1    1.000000
    0.000000    0.250000    0.000000  1  1  1    1.000000
    0.000000    0.250000    0.000000  1  2  1    1.000000
    0.000000    0.250000    0.000000  1  2  1    1.000000
    0.000000    0.250000    0.000000  1  3  1    1.000000
    0.000000    0.250000    0.000000  1  3  1    1.000000
    0.000000    0.250000    0.500000  1  1  1    1.000000
    0.000000    0.250000    0.500000  1  1  1    1.000000
    0.000000    0.250000    0.500000  1  2  1    1.000000
    0.000000    0.250000    0.500000  1  2  1    1.000000
    0.000000    0.250000    0.500000  1  3  1    1.000000
    0.000000    0.250000    0.500000  1  3  1    1.000000
    0.000000    0.750000    0.000000  1  1  1    1.000000
    0.000000    0.750000    0.000000  1  1  1    1.000000
    0.000000    0.750000    0.000000  1  2  1    1.000000
    0.000000    0.750000    0.000000  1  2  1    1.000000
    0.000000    0.750000    0.000000  1  3  1    1.000000
    0.000000    0.750000    0.000000  1  3  1    1.000000
    0.000000    0.750000    0.500000  1  1  1    1.000000
    0.000000    0.750000    0.500000  1  1  1    1.000000
    0.000000    0.750000    0.500000  1  2  1    1.000000
    0.000000    0.750000    0.500000  1  2  1    1.000000
    0.000000    0.750000    0.500000  1  3  1    1.000000
    0.000000    0.750000    0.500000  1  3  1    1.000000
    0.500000    0.250000    0.000000  1  1  1    1.000000
    0.500000    0.250000    0.000000  1  1  1    1.000000
    0.500000    0.250000    0.000000  1  2  1    1.000000
    0.500000    0.250000    0.000000  1  2  1    1.000000
    0.500000    0.250000    0.000000  1  3  1    1.000000
    0.500000    0.250000    0.000000  1  3  1    1.000000
    0.500000    0.250000    0.500000  1  1  1    1.000000
    0.500000    0.250000    0.500000  1  1  1    1.000000
    0.500000    0.250000    0.500000  1  2  1    1.000000
    0.500000    0.250000    0.500000  1  2  1    1.000000
    0.500000    0.250000    0.500000  1  3  1    1.000000
    0.500000    0.250000    0.500000  1  3  1    1.000000
    0.500000    0.750000    0.000000  1  1  1    1.000000
    0.500000    0.750000    0.000000  1  1  1    1.000000
    0.500000    0.750000    0.000000  1  2  1    1.000000
    0.500000    0.750000    0.000000  1  2  1    1.000000
    0.500000    0.750000    0.000000  1  3  1    1.000000
    0.500000    0.750000    0.000000  1  3  1    1.000000
    0.500000    0.750000    0.500000  1  1  1    1.000000
    0.500000    0.750000    0.500000  1  1  1    1.000000
    0.500000    0.750000    0.500000  1  2  1    1.000000
    0.500000    0.750000    0.500000  1  2  1    1.000000
    0.500000    0.750000    0.500000  1  3  1    1.000000
    0.500000    0.750000    0.500000  1  3  1    1.000000
    0.000000    0.000000    0.250000  1  1  1    1.000000
    0.000000    0.000000    0.250000  1  1  1    1.000000
    0.000000    0.000000    0.250000  1  2  1    1.000000
    0.000000    0.000000    0.250000  1  2  1    1.000000
    0.000000    0.000000    0.250000  1  3  1    1.000000
    0.000000    0.000000    0.250000  1  3  1    1.000000
    0.000000    0.000000    0.750000  1  1  1    1.000000
    0.000000    0.000000    0.750000  1  1  1    1.000000
    0.000000    0.000000    0.750000  1  2  1    1.000000
    0.000000    0.000000    0.750000  1  2  1    1.000000
    0.000000    0.000000    0.750000  1  3  1    1.000000
    0.000000    0.000000    0.750000  1  3  1    1.000000
    0.000000    0.500000    0.250000  1  1  1    1.000000
    0.000000    0.500000    0.250000  1  1  1    1.000000
    0.000000    0.500000    0.250000  1  2  1    1.000000
    0.000000    0.500000    0.250000  1  2  1    1.000000
    0.000000    0.500000    0.250000  1  3  1    1.000000
    0.000000    0.500000    0.250000  1  3  1    1.000000
    0.000000    0.500000    0.750000  1  1  1    1.000000
    0.000000    0.500000    0.750000  1  1  1    1.000000
    0.000000    0.500000    0.750000  1  2  1    1.000000
    0.000000    0.500000    0.750000  1  2  1    1.000000
    0.000000    0.500000    0.750000  1  3  1    1.000000
    0.000000    0.500000    0.750000  1  3  1    1.000000
    0.500000    0.000000    0.250000  1  1  1    1.000000
    0.500000    0.000000    0.250000  1  1  1    1.000000
    0.500000    0.000000    0.250000  1  2  1    1.000000
    0.500000    0.000000    0.250000  1  2  1    1.000000
    0.500000    0.000000    0.250000  1  3  1    1.000000
    0.500000    0.000000    0.250000  1  3  1    1.000000
    0.500000    0.000000    0.750000  1  1  1    1.000000
    0.500000    0.000000    0.750000  1  1  1    1.000000
    0.500000    0.000000    0.750000  1  2  1    1.000000
    0.500000    0.000000    0.750000  1  2  1    1.000000
    0.500000    0.000000    0.750000  1  3  1    1.000000
    0.500000    0.000000    0.750000  1  3  1    1.000000
    0.500000    0.500000    0.250000  1  1  1    1.000000
    0.500000    0.500000    0.250000  1  1  1    1.000000
    0.500000    0.500000    0.250000  1  2  1    1.000000
    0.500000    0.500000    0.250000  1  2  1    1.000000
    0.500000    0.500000    0.250000  1  3  1    1.000000
    0.500000    0.500000    0.250000  1  3  1    1.000000
    0.500000    0.500000    0.750000  1  1  1    1.000000
    0.500000    0.500000    0.750000  1  1  1    1.000000
    0.500000    0.500000    0.750000  1  2  1    1.000000
    0.500000    0.500000    0.750000  1  2  1    1.000000
    0.500000    0.500000    0.750000  1  3  1    1.000000
    0.500000    0.500000    0.750000  1  3  1    1.000000
    0.250000    0.000000    0.000000  1  1  1    1.000000
    0.250000    0.000000    0.000000  1  1  1    1.000000
    0.250000    0.000000    0.000000  1  2  1    1.000000
    0.250000    0.000000    0.000000  1  2  1    1.000000
    0.250000    0.000000    0.000000  1  3  1    1.000000
    0.250000    0.000000    0.000000  1  3  1    1.000000
    0.250000    0.000000    0.500000  1  1  1    1.000000
    0.250000    0.000000    0.500000  1  1  1    1.000000
    0.250000    0.000000    0.500000  1  2  1    1.000000
    0.250000    0.000000    0.500000  1  2  1    1.000000
    0.250000    0.000000    0.500000  1  3  1    1.000000
    0.250000    0.000000    0.500000  1  3  1    1.000000
    0.250000    0.500000    0.000000  1  1  1    1.000000
    0.250000    0.500000    0.000000  1  1  1    1.000000
    0.250000    0.500000    0.000000  1  2  1    1.000000
    0.250000    0.500000    0.000000  1  2  1    1.000000
    0.250000    0.500000    0.000000  1  3  1    1.000000
    0.250000    0.500000    0.000000  1  3  1    1.000000
    0.250000    0.500000    0.500000  1  1  1    1.000000
    0.250000    0.500000    0.500000  1  1  1    1.000000
    0.250000    0.500000    0.500000  1  2  1    1.000000
    0.250000    0.500000    0.500000  1  2  1    1.000000
    0.250000    0.500000    0.500000  1  3  1    1.000000
    0.250000    0.500000    0.500000  1  3  1    1.000000
    0.750000    0.000000    0.000000  1  1  1    1.000000
    0.750000    0.000000    0.000000  1  1  1    1.000000
    0.750000    0.000000    0.000000  1  2  1    1.000000
    0.750000    0.000000    0.000000  1  2  1    1.000000
    0.750000    0.000000    0.000000  1  3  1    1.000000
    0.750000    0.000000    0.000000  1  3  1    1.000000
    0.750000    0.000000    0.500000  1  1  1    1.000000
    0.750000    0.000000    0.500000  1  1  1    1.000000
    0.750000    0.000000    0.500000  1  2  1    1.000000
    0.750000    0.000000    0.500000  1  2  1    1.000000
    0.750000    0.000000    0.500000  1  3  1    1.000000
    0.750000    0.000000    0.500000  1  3  1    1.000000
    0.750000    0.500000    0.000000  1  1  1    1.000000
    0.750000    0.500000    0.000000  1  1  1    1.000000
    0.750000    0.500000    0.000000  1  2  1    1.000000
    0.750000    0.500000    0.000000  1  2  1    1.000000
    0.750000    0.500000    0.000000  1  3  1    1.000000
    0.750000    0.500000    0.000000  1  3  1    1.000000
    0.750000    0.500000    0.500000  1  1  1    1.000000
    0.750000    0.500000    0.500000  1  1  1    1.000000
    0.750000    0.500000    0.500000  1  2  1    1.000000
    0.750000    0.500000    0.500000  1  2  1    1.000000
    0.750000    0.500000    0.500000  1  3  1    1.000000
    0.750000    0.500000    0.500000  1  3  1    1.000000

  Reading data about k-point neighbours 

  All neighbours are found 

  Opening pp-files 


  --------------------------
  *** Compute  A projections
  --------------------------

  Number of local k points =        4
       1       2       3       4
  AMN calculated

  ---------------
  *** Compute  M 
  ---------------

  Number of local k points =        4
       1       2       3       4
  MMN calculated

  ------------------
  *** Compute  Spin 
  ------------------

  Number of local k points =        4
       1       2       3       4
  SPIN calculated

  -----------------------------------
  *** Orbital terms are not computed 
  -----------------------------------

  -----------------------------------
  *** SHC terms are not computed 
  -----------------------------------

  ----------------
  *** Write bands 
  ----------------


  -----------------------------
  *** Plot info is not printed 
  -----------------------------

  -----------------------------
  *** Parity info is not printed 
  -----------------------------

  ------------
  *** Stop pp 
  ------------


     init_pw2wan  :     17.77s CPU    490.24s WALL (       1 calls)
     compute_amn  :    123.98s CPU    124.76s WALL (       1 calls)
     compute_mmn  :   1556.11s CPU   2154.72s WALL (       1 calls)
     compute_spin :    109.06s CPU    113.02s WALL (       1 calls)

     Internal routines:
     compute_u_kb :    346.48s CPU    857.14s WALL (      24 calls)

     PW2WANNIER   :   1806.96s CPU   2885.56s WALL


   This run was terminated on:  17:45:11  13Feb2025            

=------------------------------------------------------------------------------=
   JOB DONE.
=------------------------------------------------------------------------------=

