
     Program PWSCF v.7.3.1 starts on 23Jun2025 at  7:33: 8 

     This program is part of the open-source Quantum ESPRESSO suite
     for quantum simulation of materials; please cite
         "P. Giannozzi et al., J. Phys.:Condens. Matter 21 395502 (2009);
         "P. Giannozzi et al., J. Phys.:Condens. Matter 29 465901 (2017);
         "P. Giannozzi et al., J. Chem. Phys. 152 154105 (2020);
          URL http://www.quantum-espresso.org", 
     in publications or presentations arising from this work. More details at
     http://www.quantum-espresso.org/quote

     Parallel version (MPI & OpenMP), running on      80 processor cores
     Number of MPI processes:                40
     Threads/MPI process:                     2

     MPI processes distributed on    20 nodes
     4529 MiB available memory on the printing compute node when the environment starts

     Reading input from BPBO.nscf.proj.in

     Current dimensions of program PWSCF are:
     Max number of different atomic species (ntypx) = 10
     Max number of k-points (npk) =  40000
     Max angular momentum in pseudopotentials (lmaxx) =  4
     file Ba.rel-pbe-spn-rrkjus_psl.1.0.0.UPF: wavefunction(s)  5S 6S renormalized
     file Pb.rel-pbe-dn-rrkjus_psl.1.0.0.UPF: wavefunction(s)  6S 5D 5D renormalized
     file Bi.rel-pbe-dn-rrkjus_psl.1.0.0.UPF: wavefunction(s)  5D 5D renormalized

     Atomic positions and unit cell read from directory:
     ./out/bpbo.save/

     Message from routine setup:
     using ibrav=0 with symmetry is DISCOURAGED, use correct ibrav instead

     K-points division:     npool     =      20
     R & G space division:  proc/nbgrp/npool/nimage =       2
     Subspace diagonalization in iterative solution of the eigenvalue problem:
     a serial algorithm will be used

     Message from routine divide_et_impera:
     suboptimal parallelization: some nodes have no k-points

     Parallelization info
     --------------------
     sticks:   dense  smooth     PW     G-vecs:    dense   smooth      PW
     Min        6526    3262    878               559942   197951   27732
     Max        6527    3263    879               559943   197952   27735
     Sum       13053    6525   1757              1119885   395903   55467

     Using Slab Decomposition



     bravais-lattice index     =            0
     lattice parameter (alat)  =      16.5225  a.u.
     unit-cell volume          =    4510.5659 (a.u.)^3
     number of atoms/cell      =           40
     number of atomic types    =            4
     number of electrons       =       339.00
     number of Kohn-Sham states=          432
     kinetic-energy cutoff     =      75.0000  Ry
     charge density cutoff     =     600.0000  Ry
     Exchange-correlation= PBE
                           (   1   4   3   4   0   0   0)
     Non magnetic calculation with spin-orbit


     celldm(1)=  16.486805  celldm(2)=   0.000000  celldm(3)=   0.000000
     celldm(4)=   0.000000  celldm(5)=   0.000000  celldm(6)=   0.000000

     crystal axes: (cart. coord. in units of alat)
               a(1) = (   1.000000   0.000000   0.000000 )  
               a(2) = (   0.000000   1.000000   0.000000 )  
               a(3) = (   0.000000   0.000000   1.000000 )  

     reciprocal axes: (cart. coord. in units 2 pi/alat)
               b(1) = (  1.000000  0.000000  0.000000 )  
               b(2) = (  0.000000  1.000000  0.000000 )  
               b(3) = (  0.000000  0.000000  1.000000 )  


     PseudoPot. # 1 for Ba read from file:
     ./pseudo/Ba.rel-pbe-spn-rrkjus_psl.1.0.0.UPF
     MD5 check sum: 94cfde5357c22a4bf03ae8062d9f9c82
     Pseudo is Ultrasoft + core correction, Zval = 10.0
     Generated using &quot;atomic&quot; code by A. Dal Corso  v.6.2.2
     Using radial grid of 1251 points, 11 beta functions with: 
                l(1) =   0
                l(2) =   0
                l(3) =   0
                l(4) =   1
                l(5) =   1
                l(6) =   1
                l(7) =   1
                l(8) =   2
                l(9) =   2
               l(10) =   2
               l(11) =   2
     Q(r) pseudized with 0 coefficients 


     PseudoPot. # 2 for O  read from file:
     ./pseudo/O.rel-pbe-n-rrkjus_psl.1.0.0.UPF
     MD5 check sum: 7bb44c19b4019dea92d8afd4a1c1ae3f
     Pseudo is Ultrasoft + core correction, Zval =  6.0
     Generated using &quot;atomic&quot; code by A. Dal Corso  v.6.3MaX
     Using radial grid of 1095 points,  6 beta functions with: 
                l(1) =   0
                l(2) =   0
                l(3) =   1
                l(4) =   1
                l(5) =   1
                l(6) =   1
     Q(r) pseudized with 0 coefficients 


     PseudoPot. # 3 for Pb read from file:
     ./pseudo/Pb.rel-pbe-dn-rrkjus_psl.1.0.0.UPF
     MD5 check sum: e88f3c92f89adaff2c2c587a7f90e9c0
     Pseudo is Ultrasoft + core correction, Zval = 14.0
     Generated using &quot;atomic&quot; code by A. Dal Corso  v.6.3
     Using radial grid of 1281 points, 10 beta functions with: 
                l(1) =   0
                l(2) =   0
                l(3) =   1
                l(4) =   1
                l(5) =   1
                l(6) =   1
                l(7) =   2
                l(8) =   2
                l(9) =   2
               l(10) =   2
     Q(r) pseudized with 0 coefficients 


     PseudoPot. # 4 for Bi read from file:
     ./pseudo/Bi.rel-pbe-dn-rrkjus_psl.1.0.0.UPF
     MD5 check sum: 0357e51b97995f252f8888940afc4c39
     Pseudo is Ultrasoft + core correction, Zval = 15.0
     Generated using &quot;atomic&quot; code by A. Dal Corso  v.6.2.2
     Using radial grid of 1283 points, 10 beta functions with: 
                l(1) =   0
                l(2) =   0
                l(3) =   1
                l(4) =   1
                l(5) =   1
                l(6) =   1
                l(7) =   2
                l(8) =   2
                l(9) =   2
               l(10) =   2
     Q(r) pseudized with 0 coefficients 


     atomic species   valence    mass     pseudopotential
     Ba               10.00   137.32700     Ba( 1.00)
     O                 6.00    15.99940     O ( 1.00)
     Pb               14.00   207.20000     Pb( 1.00)
     Bi               15.00   208.98040     Bi( 1.00)

     16 Sym. Ops., with inversion, found



   Cartesian axes

     site n.     atom                  positions (alat units)
         1        Ba     tau(   1) = (   0.2500000   0.2500000   0.2500000  )
         2        Ba     tau(   2) = (   0.2500000   0.2500000   0.7500000  )
         3        Ba     tau(   3) = (   0.2500000   0.7500000   0.2500000  )
         4        Ba     tau(   4) = (   0.2500000   0.7500000   0.7500000  )
         5        Ba     tau(   5) = (   0.7500000   0.2500000   0.2500000  )
         6        Ba     tau(   6) = (   0.7500000   0.2500000   0.7500000  )
         7        Ba     tau(   7) = (   0.7500000   0.7500000   0.2500000  )
         8        Ba     tau(   8) = (   0.7500000   0.7500000   0.7500000  )
         9        Bi     tau(   9) = (   0.0000000   0.0000000   0.0000000  )
        10        Bi     tau(  10) = (   0.5000000   0.5000000   0.5000000  )
        11        Bi     tau(  11) = (   0.0000000   0.0000000   0.5000000  )
        12        Pb     tau(  12) = (   0.0000000   0.5000000   0.0000000  )
        13        Pb     tau(  13) = (   0.0000000   0.5000000   0.5000000  )
        14        Pb     tau(  14) = (   0.5000000   0.0000000   0.0000000  )
        15        Pb     tau(  15) = (   0.5000000   0.0000000   0.5000000  )
        16        Pb     tau(  16) = (   0.5000000   0.5000000   0.0000000  )
        17        O      tau(  17) = (   0.0000000   0.2500000   0.0000000  )
        18        O      tau(  18) = (   0.0000000   0.2500000   0.5000000  )
        19        O      tau(  19) = (   0.0000000   0.7500000   0.0000000  )
        20        O      tau(  20) = (   0.0000000   0.7500000   0.5000000  )
        21        O      tau(  21) = (   0.5000000   0.2500000   0.0000000  )
        22        O      tau(  22) = (   0.5000000   0.2500000   0.5000000  )
        23        O      tau(  23) = (   0.5000000   0.7500000   0.0000000  )
        24        O      tau(  24) = (   0.5000000   0.7500000   0.5000000  )
        25        O      tau(  25) = (   0.0000000   0.0000000   0.2500000  )
        26        O      tau(  26) = (   0.0000000   0.0000000   0.7500000  )
        27        O      tau(  27) = (   0.0000000   0.5000000   0.2500000  )
        28        O      tau(  28) = (   0.0000000   0.5000000   0.7500000  )
        29        O      tau(  29) = (   0.5000000   0.0000000   0.2500000  )
        30        O      tau(  30) = (   0.5000000   0.0000000   0.7500000  )
        31        O      tau(  31) = (   0.5000000   0.5000000   0.2500000  )
        32        O      tau(  32) = (   0.5000000   0.5000000   0.7500000  )
        33        O      tau(  33) = (   0.2500000   0.0000000   0.0000000  )
        34        O      tau(  34) = (   0.2500000   0.0000000   0.5000000  )
        35        O      tau(  35) = (   0.2500000   0.5000000   0.0000000  )
        36        O      tau(  36) = (   0.2500000   0.5000000   0.5000000  )
        37        O      tau(  37) = (   0.7500000   0.0000000   0.0000000  )
        38        O      tau(  38) = (   0.7500000   0.0000000   0.5000000  )
        39        O      tau(  39) = (   0.7500000   0.5000000   0.0000000  )
        40        O      tau(  40) = (   0.7500000   0.5000000   0.5000000  )

     number of k points=    18 (tetrahedron method)
                       cart. coord. in units 2pi/alat
        k(    1) = (   0.0000000   0.0000000   0.0000000), wk =   0.0156250
        k(    2) = (   0.0000000   0.0000000   0.2500000), wk =   0.0312500
        k(    3) = (   0.0000000   0.0000000  -0.5000000), wk =   0.0156250
        k(    4) = (   0.0000000   0.2500000   0.2500000), wk =   0.1250000
        k(    5) = (   0.0000000   0.2500000  -0.5000000), wk =   0.0625000
        k(    6) = (   0.0000000  -0.5000000  -0.5000000), wk =   0.0312500
        k(    7) = (   0.2500000   0.2500000   0.2500000), wk =   0.1250000
        k(    8) = (   0.2500000   0.2500000  -0.5000000), wk =   0.0625000
        k(    9) = (   0.2500000  -0.5000000  -0.5000000), wk =   0.0625000
        k(   10) = (  -0.5000000  -0.5000000  -0.5000000), wk =   0.0156250
        k(   11) = (   0.0000000   0.2500000   0.0000000), wk =   0.0625000
        k(   12) = (   0.0000000  -0.5000000   0.0000000), wk =   0.0312500
        k(   13) = (   0.2500000   0.2500000   0.0000000), wk =   0.0625000
        k(   14) = (   0.2500000  -0.5000000   0.0000000), wk =   0.0625000
        k(   15) = (  -0.5000000   0.0000000   0.2500000), wk =   0.0625000
        k(   16) = (  -0.5000000  -0.5000000   0.0000000), wk =   0.0156250
        k(   17) = (   0.2500000  -0.5000000   0.2500000), wk =   0.1250000
        k(   18) = (  -0.5000000  -0.5000000   0.2500000), wk =   0.0312500

     Dense  grid:  1119885 G-vectors     FFT dimensions: ( 135, 135, 135)

     Smooth grid:   395903 G-vectors     FFT dimensions: (  96,  96,  96)

     Estimated max dynamical RAM per process >       3.02 GB

     Estimated total dynamical RAM >     120.73 GB

     The potential is recalculated from file :
     ./out/bpbo.save/charge-density

     Starting wfcs are  416 randomized atomic wfcs +   16 random wfcs

     Band Structure Calculation
     Davidson diagonalization with overlap
     c_bands: 18 eigenvalues not converged

     ethr =  1.00E-13,  avg # of iterations =120.0

     total cpu time spent up to now is     3747.6 secs

     End of band structure calculation

          k = 0.0000 0.0000 0.0000 ( 49509 PWs)   bands (ev):

   -16.8772 -16.8772 -16.8473 -16.8473 -16.8473 -16.8473 -16.8473 -16.8473
   -16.8245 -16.8245 -16.8244 -16.8244 -16.8243 -16.8243 -16.8040 -16.8040
   -14.5744 -14.5744 -14.5454 -14.5454 -14.4990 -14.4990 -14.4908 -14.4908
   -14.4496 -14.4496 -14.4445 -14.4445 -11.8208 -11.8208 -11.7368 -11.7368
   -11.6816 -11.6816 -11.6435 -11.6435 -11.6378 -11.6378 -11.6350 -11.6350
   -11.4909 -11.4909 -11.4387 -11.4387 -11.3850 -11.3850  -9.0431  -9.0431
    -8.9167  -8.9167  -8.7827  -8.7827  -8.7538  -8.7538  -8.7178  -8.7178
    -8.7024  -8.7024  -8.5295  -8.5295  -8.4342  -8.4342  -8.2341  -8.2341
    -8.2055  -8.2055  -8.0435  -8.0435  -7.9281  -7.9281  -7.6722  -7.6722
    -7.6603  -7.6603  -7.6287  -7.6287  -7.6236  -7.6236  -7.5950  -7.5950
    -7.5878  -7.5878  -7.5717  -7.5717  -7.5575  -7.5575  -7.5192  -7.5192
    -7.5191  -7.5191  -7.3298  -7.3298  -7.2654  -7.2654  -7.2315  -7.2315
    -7.2178  -7.2178  -7.1275  -7.1275  -7.0853  -7.0853  -7.0708  -7.0708
    -6.7577  -6.7577  -6.7268  -6.7268  -6.7052  -6.7052  -6.6823  -6.6823
    -6.6781  -6.6781  -5.3324  -5.3324  -5.3107  -5.3107  -5.2447  -5.2447
    -5.2235  -5.2235  -5.1495  -5.1495  -5.1333  -5.1333  -5.1092  -5.1092
    -5.0892  -5.0892  -5.0771  -5.0771  -4.9729  -4.9729  -4.4709  -4.4709
    -4.4484  -4.4484  -4.1149  -4.1149  -3.9797  -3.9797  -3.7294  -3.7294
    -3.5645  -3.5645  -3.4297  -3.4297  -3.4019  -3.4019  -3.3997  -3.3997
    -3.3958  -3.3958  -3.3373  -3.3373  -3.3358  -3.3358  -3.3349  -3.3349
    -1.6620  -1.6620  -1.6617  -1.6617  -1.4914  -1.4914  -1.4790  -1.4790
    -1.4686  -1.4686  -1.4164  -1.4164  -1.4136  -1.4136  -1.3327  -1.3327
    -1.3326  -1.3326  -1.3189  -1.3189  -1.3137  -1.3137  -1.3125  -1.3125
    -1.2984  -1.2984  -1.2964  -1.2964  -1.2808  -1.2808  -1.2770  -1.2770
    -1.2467  -1.2467   0.0771   0.0771   0.7283   0.7283   1.5896   1.5896
     2.2362   2.2362   3.0507   3.0507   3.4324   3.4324   3.5268   3.5268
     3.8833   3.8833   4.1532   4.1532   4.2841   4.2841   4.3272   4.3272
     4.5509   4.5509   4.6148   4.6148   4.6463   4.6463   4.8751   4.8751
     4.9251   4.9251   5.1047   5.1047   5.1469   5.1469   5.6833   5.6833
     6.3100   6.3100   6.3145   6.3145   6.3439   6.3439   6.6414   6.6414
     6.6449   6.6449   6.6596   6.6596   7.0895   7.0895   7.2048   7.2048
     7.2217   7.2217   7.2289   7.2289   7.2306   7.2306   7.2796   7.2796
     7.3780   7.3780   7.3864   7.3864   7.3944   7.3944   7.4450   7.4450
     7.4492   7.4492   7.4664   7.4664   7.4743   7.4743   7.4999   7.4999
     7.5026   7.5026   7.5171   7.5171   7.5245   7.5245   7.5494   7.5494
     7.6484   7.6484   7.6573   7.6573   7.6841   7.6841   7.6986   7.6986
     7.7294   7.7294   7.7381   7.7381   7.8314   7.8314   7.8488   7.8488
     7.8515   7.8515   7.8991   7.8991   7.9035   7.9035   7.9054   7.9054
     7.9167   7.9167   7.9245   7.9245   7.9314   7.9314   7.9377   7.9377
     8.0635   8.0635   8.1362   8.1362   8.1676   8.1676   8.1765   8.1765
     8.3442   8.3442   8.4251   8.4251   8.5201   8.5201   8.5510   8.5510
     8.5541   8.5541   8.6464   8.6464   8.7036   8.7036   8.7142   8.7142
     8.7227   8.7227  10.5936  10.5936  10.9490  10.9490  11.4489  11.4489
    12.0601  12.0601  12.2600  12.2600  12.9378  12.9378  13.2424  13.2424
    13.2734  13.2734  13.2989  13.2989  13.3276  13.3276  13.3282  13.3282
    13.7974  13.7974  14.3566  14.3566  14.4237  14.4237  14.6879  14.6879
    14.6922  14.6922  14.7006  14.7006  14.7481  14.7481  14.7503  14.7503
    14.7508  14.7508  14.7850  14.7850  15.0410  15.0410  15.1500  15.1500
    15.2777  15.2777  15.3420  15.3420  15.3761  15.3761  15.3775  15.3775
    15.5059  15.5059  15.5387  15.5387  15.5445  15.5445  15.5480  15.5480
    15.6206  15.6206  15.6624  15.6624  15.6790  15.6790  15.7168  15.7168
    15.7984  15.7984  16.0060  16.0060  16.1490  16.1490  16.2463  16.2463
    16.3162  16.3162  16.3342  16.3342  16.3758  16.3758  16.4816  16.4816
    16.4889  16.4889  16.5097  16.5105  16.5132  16.5133  16.5585  16.5594

          k = 0.0000 0.0000 0.2500 ( 49466 PWs)   bands (ev):

   -16.8729 -16.8729 -16.8517 -16.8517 -16.8440 -16.8440 -16.8440 -16.8440
   -16.8279 -16.8279 -16.8277 -16.8277 -16.8214 -16.8214 -16.8070 -16.8070
   -14.5683 -14.5683 -14.5454 -14.5454 -14.5048 -14.5048 -14.4908 -14.4908
   -14.4496 -14.4496 -14.4444 -14.4444 -11.7977 -11.7977 -11.7368 -11.7368
   -11.6816 -11.6816 -11.6631 -11.6631 -11.6435 -11.6435 -11.6348 -11.6348
   -11.4907 -11.4907 -11.4389 -11.4389 -11.3850 -11.3850  -9.0136  -9.0136
    -8.8835  -8.8835  -8.7810  -8.7810  -8.7421  -8.7421  -8.7007  -8.7007
    -8.6732  -8.6732  -8.4984  -8.4984  -8.4342  -8.4342  -8.3098  -8.3098
    -8.2717  -8.2717  -8.0783  -8.0783  -7.9476  -7.9476  -7.7960  -7.7960
    -7.6950  -7.6950  -7.6910  -7.6910  -7.6525  -7.6525  -7.6190  -7.6190
    -7.6169  -7.6169  -7.5848  -7.5848  -7.5737  -7.5737  -7.5301  -7.5301
    -7.4127  -7.4127  -7.4108  -7.4108  -7.2486  -7.2486  -7.2209  -7.2209
    -7.1244  -7.1244  -7.0838  -7.0838  -6.9934  -6.9934  -6.9273  -6.9273
    -6.7577  -6.7577  -6.7551  -6.7551  -6.7391  -6.7391  -6.7104  -6.7104
    -6.6823  -6.6823  -5.2833  -5.2833  -5.2395  -5.2395  -5.2230  -5.2230
    -5.1536  -5.1536  -5.1422  -5.1422  -5.1335  -5.1335  -5.0892  -5.0892
    -5.0847  -5.0847  -4.9513  -4.9513  -4.9321  -4.9321  -4.5117  -4.5117
    -4.4709  -4.4709  -4.2062  -4.2062  -4.1179  -4.1179  -3.7869  -3.7869
    -3.5408  -3.5408  -3.4237  -3.4237  -3.4111  -3.4111  -3.3928  -3.3928
    -3.3871  -3.3871  -3.3479  -3.3479  -3.3465  -3.3465  -3.3438  -3.3438
    -1.6357  -1.6357  -1.6155  -1.6155  -1.5077  -1.5077  -1.4642  -1.4642
    -1.4427  -1.4427  -1.4027  -1.4027  -1.3908  -1.3908  -1.3710  -1.3710
    -1.3339  -1.3339  -1.3280  -1.3280  -1.3246  -1.3246  -1.3111  -1.3111
    -1.3102  -1.3102  -1.3082  -1.3082  -1.3013  -1.3013  -1.2867  -1.2867
    -1.1061  -1.1061   0.0162   0.0162   0.4309   0.4309   1.7155   1.7155
     1.8416   1.8416   2.8301   2.8301   3.0359   3.0359   3.6531   3.6531
     4.0396   4.0396   4.1787   4.1787   4.3399   4.3399   4.3854   4.3854
     4.5543   4.5543   4.6149   4.6149   4.7499   4.7499   4.9568   4.9568
     5.0955   5.0955   5.4523   5.4523   5.6406   5.6406   6.3649   6.3649
     6.3660   6.3660   6.3682   6.3682   6.4689   6.4689   6.6165   6.6165
     6.6309   6.6309   6.6578   6.6578   7.0520   7.0520   7.1310   7.1310
     7.1627   7.1627   7.1882   7.1882   7.1922   7.1922   7.1983   7.1983
     7.3093   7.3093   7.3450   7.3450   7.3638   7.3638   7.3953   7.3953
     7.4197   7.4197   7.4522   7.4522   7.4617   7.4617   7.4863   7.4863
     7.4867   7.4867   7.5214   7.5214   7.5957   7.5957   7.6060   7.6060
     7.6636   7.6636   7.6730   7.6730   7.6913   7.6913   7.7015   7.7015
     7.7347   7.7347   7.7430   7.7430   7.7559   7.7559   7.7996   7.7996
     7.8389   7.8389   7.8627   7.8627   7.8808   7.8808   7.8932   7.8932
     7.9112   7.9112   7.9637   7.9637   8.0218   8.0218   8.0242   8.0242
     8.0738   8.0738   8.1030   8.1030   8.1355   8.1355   8.1548   8.1548
     8.2688   8.2688   8.2852   8.2852   8.4278   8.4278   8.4422   8.4422
     8.5218   8.5218   8.5650   8.5650   8.5774   8.5774   8.5893   8.5893
     8.7181   8.7181  10.2567  10.2567  10.7143  10.7143  11.5691  11.5691
    11.7904  11.7904  12.3582  12.3582  12.7566  12.7566  12.8623  12.8623
    13.3786  13.3786  13.5287  13.5287  13.5395  13.5395  13.5444  13.5444
    13.9547  13.9547  14.2569  14.2569  14.4487  14.4487  14.5294  14.5294
    14.6076  14.6076  14.8030  14.8030  14.8271  14.8271  14.8877  14.8877
    14.9145  14.9145  14.9238  14.9238  15.0849  15.0849  15.1443  15.1443
    15.2575  15.2575  15.2743  15.2743  15.3807  15.3807  15.4272  15.4272
    15.4372  15.4372  15.5247  15.5247  15.6133  15.6133  15.6262  15.6262
    15.6410  15.6410  15.6835  15.6835  15.7083  15.7083  15.7623  15.7623
    15.8450  15.8450  16.0305  16.0305  16.1030  16.1030  16.1055  16.1055
    16.2582  16.2582  16.2635  16.2635  16.3573  16.3573  16.3702  16.3702
    16.4484  16.4484  16.4813  16.4813  16.5019  16.5019  16.5191  16.5191

          k = 0.0000 0.0000-0.5000 ( 49454 PWs)   bands (ev):

   -16.8626 -16.8626 -16.8620 -16.8620 -16.8360 -16.8360 -16.8360 -16.8360
   -16.8358 -16.8358 -16.8357 -16.8357 -16.8144 -16.8144 -16.8141 -16.8141
   -14.5606 -14.5606 -14.5454 -14.5454 -14.5121 -14.5121 -14.4908 -14.4908
   -14.4496 -14.4496 -14.4442 -14.4442 -11.7557 -11.7557 -11.7367 -11.7367
   -11.7088 -11.7088 -11.6816 -11.6816 -11.6435 -11.6435 -11.6330 -11.6330
   -11.4906 -11.4906 -11.4391 -11.4391 -11.3850 -11.3850  -8.9571  -8.9571
    -8.8826  -8.8826  -8.8219  -8.8219  -8.7341  -8.7341  -8.6777  -8.6777
    -8.4908  -8.4908  -8.4337  -8.4337  -8.4307  -8.4307  -8.4300  -8.4300
    -8.3239  -8.3239  -8.2235  -8.2235  -8.1163  -8.1163  -7.7990  -7.7990
    -7.7790  -7.7790  -7.6872  -7.6872  -7.6466  -7.6466  -7.6168  -7.6168
    -7.6006  -7.6006  -7.5909  -7.5909  -7.5646  -7.5646  -7.5513  -7.5513
    -7.4314  -7.4314  -7.3262  -7.3262  -7.2472  -7.2472  -7.2232  -7.2232
    -7.1695  -7.1695  -6.9247  -6.9247  -6.8730  -6.8730  -6.8319  -6.8319
    -6.8226  -6.8226  -6.7986  -6.7986  -6.7667  -6.7667  -6.7566  -6.7566
    -6.6823  -6.6823  -5.2608  -5.2608  -5.2339  -5.2339  -5.2224  -5.2224
    -5.1584  -5.1584  -5.1345  -5.1345  -5.0925  -5.0925  -5.0893  -5.0893
    -4.9260  -4.9260  -4.7466  -4.7466  -4.7387  -4.7387  -4.5773  -4.5773
    -4.4942  -4.4942  -4.4705  -4.4705  -4.2894  -4.2894  -3.8321  -3.8321
    -3.4871  -3.4871  -3.4783  -3.4783  -3.3786  -3.3786  -3.3744  -3.3744
    -3.3710  -3.3710  -3.3697  -3.3697  -3.3655  -3.3655  -3.3652  -3.3652
    -1.5740  -1.5740  -1.5695  -1.5695  -1.5041  -1.5041  -1.4956  -1.4956
    -1.4011  -1.4011  -1.4002  -1.4002  -1.3797  -1.3797  -1.3783  -1.3783
    -1.3556  -1.3556  -1.3546  -1.3546  -1.3456  -1.3456  -1.3410  -1.3410
    -1.3225  -1.3225  -1.3183  -1.3183  -1.2999  -1.2999  -1.2995  -1.2995
    -0.7481  -0.7481  -0.4118  -0.4118   0.3768   0.3768   1.5091   1.5091
     2.0363   2.0363   2.2221   2.2221   3.1412   3.1412   3.5085   3.5085
     4.0476   4.0476   4.1265   4.1265   4.2961   4.2961   4.4573   4.4573
     4.5468   4.5468   4.5693   4.5693   4.8655   4.8655   5.0924   5.0924
     5.9576   5.9576   5.9691   5.9691   6.4578   6.4578   6.4835   6.4835
     6.4925   6.4925   6.5228   6.5228   6.6021   6.6021   6.6294   6.6294
     6.6991   6.6991   6.7362   6.7362   6.7515   6.7515   6.8531   6.8531
     6.8697   6.8697   6.8721   6.8721   7.1259   7.1259   7.1940   7.1940
     7.1947   7.1947   7.2134   7.2134   7.3289   7.3289   7.3659   7.3659
     7.3827   7.3827   7.3895   7.3895   7.4624   7.4624   7.4700   7.4700
     7.5568   7.5568   7.5613   7.5613   7.5634   7.5634   7.5650   7.5650
     7.6059   7.6059   7.6137   7.6137   7.6682   7.6682   7.6897   7.6897
     7.7258   7.7258   7.7461   7.7461   7.7872   7.7872   7.8109   7.8109
     7.8204   7.8204   7.8658   7.8658   7.9154   7.9154   7.9764   7.9764
     7.9810   7.9810   7.9914   7.9914   8.0429   8.0429   8.0668   8.0668
     8.1336   8.1336   8.1365   8.1365   8.1407   8.1407   8.1789   8.1789
     8.1818   8.1818   8.2409   8.2409   8.2456   8.2456   8.3661   8.3661
     8.3761   8.3761   8.5139   8.5139   8.5234   8.5234   8.7157   8.7157
     9.0041   9.0041   9.1659   9.1659  10.7923  10.7923  11.3868  11.3868
    11.8951  11.8951  12.1014  12.1014  12.7153  12.7153  12.8225  12.8225
    13.5454  13.5454  13.5752  13.5752  14.0190  14.0190  14.0201  14.0201
    14.0462  14.0462  14.0727  14.0727  14.1652  14.1652  14.3351  14.3351
    14.5203  14.5203  14.5893  14.5893  14.7208  14.7208  14.9823  14.9823
    14.9927  14.9927  15.0533  15.0533  15.1526  15.1526  15.2886  15.2886
    15.3279  15.3279  15.4897  15.4897  15.5034  15.5034  15.5234  15.5234
    15.5430  15.5430  15.5630  15.5630  15.6820  15.6820  15.6893  15.6893
    15.7020  15.7020  15.7501  15.7501  15.8544  15.8544  15.8553  15.8553
    15.9575  15.9575  15.9598  15.9598  16.0393  16.0393  16.0715  16.0715
    16.0725  16.0725  16.1228  16.1228  16.1321  16.1321  16.1582  16.1582
    16.1619  16.1619  16.1737  16.1737  16.3792  16.3792  16.4081  16.4081

          k = 0.0000 0.2500 0.2500 ( 49490 PWs)   bands (ev):

   -16.8687 -16.8687 -16.8483 -16.8483 -16.8482 -16.8482 -16.8407 -16.8407
   -16.8313 -16.8313 -16.8248 -16.8248 -16.8247 -16.8247 -16.8101 -16.8101
   -14.5682 -14.5682 -14.5453 -14.5453 -14.5048 -14.5048 -14.4907 -14.4907
   -14.4495 -14.4495 -14.4443 -14.4443 -11.7973 -11.7973 -11.7353 -11.7353
   -11.6803 -11.6803 -11.6624 -11.6624 -11.6421 -11.6421 -11.6342 -11.6342
   -11.4907 -11.4907 -11.4389 -11.4389 -11.3850 -11.3850  -8.9650  -8.9650
    -8.8495  -8.8495  -8.7438  -8.7438  -8.7229  -8.7229  -8.6847  -8.6847
    -8.6542  -8.6542  -8.5259  -8.5259  -8.4688  -8.4688  -8.3630  -8.3630
    -8.3223  -8.3223  -8.1903  -8.1903  -8.0033  -8.0033  -7.9647  -7.9647
    -7.8139  -7.8139  -7.7506  -7.7506  -7.6589  -7.6589  -7.6276  -7.6276
    -7.6154  -7.6154  -7.5935  -7.5935  -7.5577  -7.5577  -7.4233  -7.4233
    -7.3755  -7.3755  -7.2589  -7.2589  -7.2333  -7.2333  -7.1293  -7.1293
    -7.0703  -7.0703  -7.0080  -7.0080  -6.9544  -6.9544  -6.8949  -6.8949
    -6.7846  -6.7846  -6.7634  -6.7634  -6.7462  -6.7462  -6.7175  -6.7175
    -6.6984  -6.6984  -5.2368  -5.2368  -5.2315  -5.2315  -5.2246  -5.2246
    -5.1504  -5.1504  -5.1357  -5.1357  -5.1051  -5.1051  -5.0916  -5.0916
    -5.0069  -5.0069  -4.9307  -4.9307  -4.8768  -4.8768  -4.5521  -4.5521
    -4.4970  -4.4970  -4.2582  -4.2582  -4.1613  -4.1613  -3.8789  -3.8789
    -3.5196  -3.5196  -3.4144  -3.4144  -3.4114  -3.4114  -3.3972  -3.3972
    -3.3831  -3.3831  -3.3579  -3.3579  -3.3536  -3.3536  -3.3520  -3.3520
    -1.6110  -1.6110  -1.5741  -1.5741  -1.4878  -1.4878  -1.4784  -1.4784
    -1.4318  -1.4318  -1.3985  -1.3985  -1.3725  -1.3725  -1.3671  -1.3671
    -1.3606  -1.3606  -1.3527  -1.3527  -1.3420  -1.3420  -1.3298  -1.3298
    -1.3219  -1.3219  -1.3138  -1.3138  -1.3020  -1.3020  -1.2907  -1.2907
    -0.9869  -0.9869  -0.0521  -0.0521   0.3708   0.3708   1.5534   1.5534
     1.6990   1.6990   2.4774   2.4774   2.6957   2.6957   3.3649   3.3649
     4.1419   4.1419   4.2354   4.2354   4.3825   4.3825   4.5725   4.5725
     4.8788   4.8788   4.9664   4.9664   5.1272   5.1272   5.2089   5.2089
     5.3799   5.3799   5.5808   5.5808   5.7922   5.7922   6.4085   6.4085
     6.4634   6.4634   6.5007   6.5007   6.5212   6.5212   6.6186   6.6186
     6.6257   6.6257   6.6526   6.6526   6.9767   6.9767   7.0275   7.0275
     7.1223   7.1223   7.1353   7.1353   7.1583   7.1583   7.1944   7.1944
     7.2708   7.2708   7.2968   7.2968   7.3155   7.3155   7.3373   7.3373
     7.3432   7.3432   7.3779   7.3779   7.4646   7.4646   7.5297   7.5297
     7.5470   7.5470   7.5541   7.5541   7.6008   7.6008   7.6076   7.6076
     7.6276   7.6276   7.6452   7.6452   7.6709   7.6709   7.7145   7.7145
     7.7280   7.7280   7.7510   7.7510   7.7720   7.7720   7.8242   7.8242
     7.8414   7.8414   7.8552   7.8552   7.8787   7.8787   7.8976   7.8976
     7.9196   7.9196   7.9337   7.9337   8.0450   8.0450   8.0495   8.0495
     8.0649   8.0649   8.0892   8.0892   8.0948   8.0948   8.1684   8.1684
     8.2018   8.2018   8.3617   8.3617   8.3792   8.3792   8.4045   8.4045
     8.4178   8.4178   8.4580   8.4580   8.5628   8.5628   8.5760   8.5760
     8.6338   8.6338  10.2169  10.2169  10.4041  10.4041  11.3569  11.3569
    11.5243  11.5243  12.2070  12.2070  12.4970  12.4970  12.5918  12.5918
    13.4055  13.4055  13.6956  13.6956  13.7515  13.7515  13.8215  13.8215
    14.1503  14.1503  14.3881  14.3881  14.5362  14.5362  14.6157  14.6157
    14.6197  14.6197  14.7844  14.7844  14.8090  14.8090  14.8831  14.8831
    14.9568  14.9568  14.9910  14.9910  15.0464  15.0464  15.1345  15.1345
    15.1828  15.1828  15.3292  15.3292  15.5029  15.5029  15.5246  15.5246
    15.5585  15.5585  15.6057  15.6057  15.6300  15.6300  15.6468  15.6468
    15.6787  15.6787  15.7397  15.7397  15.7689  15.7689  15.7750  15.7750
    15.7965  15.7965  15.9440  15.9440  15.9790  15.9790  15.9978  15.9978
    16.1488  16.1488  16.2046  16.2046  16.2588  16.2588  16.3146  16.3146
    16.3716  16.3716  16.4223  16.4223  16.4684  16.4684  16.4870  16.4870

          k = 0.0000 0.2500-0.5000 ( 49470 PWs)   bands (ev):

   -16.8588 -16.8588 -16.8582 -16.8582 -16.8399 -16.8399 -16.8397 -16.8397
   -16.8329 -16.8329 -16.8326 -16.8326 -16.8176 -16.8176 -16.8173 -16.8173
   -14.5606 -14.5606 -14.5453 -14.5453 -14.5121 -14.5121 -14.4907 -14.4907
   -14.4495 -14.4495 -14.4442 -14.4442 -11.7553 -11.7553 -11.7353 -11.7353
   -11.7084 -11.7084 -11.6802 -11.6802 -11.6421 -11.6421 -11.6324 -11.6324
   -11.4906 -11.4906 -11.4391 -11.4391 -11.3850 -11.3850  -8.9105  -8.9105
    -8.8378  -8.8378  -8.7820  -8.7820  -8.7150  -8.7150  -8.6221  -8.6221
    -8.5252  -8.5252  -8.5094  -8.5094  -8.4621  -8.4621  -8.4333  -8.4333
    -8.3267  -8.3267  -8.2482  -8.2482  -8.1883  -8.1883  -8.0859  -8.0859
    -7.8761  -7.8761  -7.7870  -7.7870  -7.6790  -7.6790  -7.6319  -7.6319
    -7.6102  -7.6102  -7.5848  -7.5848  -7.5698  -7.5698  -7.3858  -7.3858
    -7.3017  -7.3017  -7.2396  -7.2396  -7.2063  -7.2063  -7.1561  -7.1561
    -6.9757  -6.9757  -6.9330  -6.9330  -6.8807  -6.8807  -6.8425  -6.8425
    -6.8283  -6.8283  -6.8060  -6.8060  -6.7750  -6.7750  -6.7689  -6.7689
    -6.6994  -6.6994  -5.2322  -5.2322  -5.2241  -5.2241  -5.2049  -5.2049
    -5.1541  -5.1541  -5.1363  -5.1363  -5.0917  -5.0917  -4.9636  -4.9636
    -4.8767  -4.8767  -4.7256  -4.7256  -4.7066  -4.7066  -4.6039  -4.6039
    -4.5504  -4.5504  -4.5320  -4.5320  -4.3367  -4.3367  -3.9365  -3.9365
    -3.4705  -3.4705  -3.4634  -3.4634  -3.3863  -3.3863  -3.3856  -3.3856
    -3.3744  -3.3744  -3.3717  -3.3717  -3.3676  -3.3676  -3.3670  -3.3670
    -1.5486  -1.5486  -1.5467  -1.5467  -1.4761  -1.4761  -1.4699  -1.4699
    -1.4225  -1.4225  -1.4219  -1.4219  -1.3858  -1.3858  -1.3834  -1.3834
    -1.3739  -1.3739  -1.3705  -1.3705  -1.3442  -1.3442  -1.3424  -1.3424
    -1.3227  -1.3227  -1.3207  -1.3207  -1.3040  -1.3040  -1.3030  -1.3030
    -0.6278  -0.6278  -0.3530  -0.3530   0.1873   0.1873   1.3419   1.3419
     1.9091   1.9091   2.1234   2.1234   2.5878   2.5878   3.0471   3.0471
     4.1968   4.1968   4.2961   4.2961   4.3522   4.3522   4.8852   4.8852
     4.9585   4.9585   5.0750   5.0750   5.1008   5.1008   5.5609   5.5609
     5.9764   5.9764   5.9840   5.9840   6.4656   6.4656   6.5117   6.5117
     6.5424   6.5424   6.5493   6.5493   6.5626   6.5626   6.5859   6.5859
     6.6948   6.6948   6.7396   6.7396   6.7541   6.7541   6.7646   6.7646
     6.7873   6.7873   6.8323   6.8323   7.1225   7.1225   7.1325   7.1325
     7.1506   7.1506   7.1882   7.1882   7.2796   7.2796   7.2858   7.2858
     7.2985   7.2985   7.3144   7.3144   7.4003   7.4003   7.4617   7.4617
     7.5074   7.5074   7.5770   7.5770   7.5836   7.5836   7.5970   7.5970
     7.6193   7.6193   7.6607   7.6607   7.7331   7.7331   7.7432   7.7432
     7.7646   7.7646   7.7787   7.7787   7.7914   7.7914   7.8103   7.8103
     7.8725   7.8725   7.8758   7.8758   7.8823   7.8823   7.9136   7.9136
     7.9375   7.9375   7.9998   7.9998   8.0254   8.0254   8.0448   8.0448
     8.1141   8.1141   8.1216   8.1216   8.1357   8.1357   8.1816   8.1816
     8.2439   8.2439   8.2530   8.2530   8.2652   8.2652   8.3487   8.3487
     8.3980   8.3980   8.4062   8.4062   8.4655   8.4655   8.6199   8.6199
     9.1009   9.1009   9.2946   9.2946  10.4282  10.4282  10.9963  10.9963
    11.6771  11.6771  11.9254  11.9254  12.1940  12.1940  12.6172  12.6172
    13.6935  13.6935  13.8612  13.8612  14.1244  14.1244  14.1282  14.1282
    14.2662  14.2662  14.2868  14.2868  14.4077  14.4077  14.4754  14.4754
    14.4884  14.4884  14.7821  14.7821  14.8081  14.8081  14.8628  14.8628
    14.9236  14.9236  14.9837  14.9837  15.2035  15.2035  15.3070  15.3070
    15.3298  15.3298  15.3859  15.3859  15.4141  15.4141  15.4387  15.4387
    15.6090  15.6090  15.6293  15.6293  15.6654  15.6654  15.6751  15.6751
    15.6818  15.6818  15.6951  15.6951  15.8799  15.8799  15.8979  15.8979
    15.9333  15.9333  15.9739  15.9739  16.0307  16.0307  16.0620  16.0620
    16.0747  16.0747  16.0805  16.0805  16.1249  16.1249  16.1407  16.1407
    16.1693  16.1693  16.2159  16.2159  16.3598  16.3605  16.3802  16.3837

          k = 0.0000-0.5000-0.5000 ( 49600 PWs)   bands (ev):

   -16.8495 -16.8495 -16.8492 -16.8492 -16.8492 -16.8492 -16.8487 -16.8487
   -16.8254 -16.8254 -16.8251 -16.8251 -16.8250 -16.8250 -16.8249 -16.8249
   -14.5605 -14.5605 -14.5452 -14.5452 -14.5120 -14.5120 -14.4906 -14.4906
   -14.4494 -14.4494 -14.4441 -14.4441 -11.7549 -11.7549 -11.7338 -11.7338
   -11.7080 -11.7080 -11.6788 -11.6788 -11.6409 -11.6409 -11.6317 -11.6317
   -11.4906 -11.4906 -11.4391 -11.4391 -11.3850 -11.3850  -8.8193  -8.8193
    -8.7607  -8.7607  -8.7449  -8.7449  -8.7168  -8.7168  -8.6014  -8.6014
    -8.5885  -8.5885  -8.5443  -8.5443  -8.4982  -8.4982  -8.4517  -8.4517
    -8.3019  -8.3019  -8.2917  -8.2917  -8.2608  -8.2608  -8.2097  -8.2097
    -8.0539  -8.0539  -7.7857  -7.7857  -7.7062  -7.7062  -7.6911  -7.6911
    -7.6278  -7.6278  -7.5865  -7.5865  -7.5698  -7.5698  -7.3550  -7.3550
    -7.2389  -7.2389  -7.1173  -7.1173  -7.0784  -7.0784  -6.9721  -6.9721
    -6.9605  -6.9605  -6.9035  -6.9035  -6.8969  -6.8969  -6.8626  -6.8626
    -6.8335  -6.8335  -6.8312  -6.8312  -6.8020  -6.8020  -6.7564  -6.7564
    -6.7343  -6.7343  -5.2281  -5.2281  -5.2281  -5.2281  -5.1881  -5.1881
    -5.1477  -5.1477  -5.1404  -5.1404  -5.0941  -5.0941  -4.7359  -4.7359
    -4.7354  -4.7354  -4.6664  -4.6664  -4.6571  -4.6571  -4.6412  -4.6412
    -4.6171  -4.6171  -4.5944  -4.5944  -4.5713  -4.5713  -4.0399  -4.0399
    -3.4309  -3.4309  -3.4294  -3.4294  -3.4283  -3.4283  -3.4209  -3.4209
    -3.3708  -3.3708  -3.3694  -3.3694  -3.3680  -3.3680  -3.3664  -3.3664
    -1.4933  -1.4933  -1.4910  -1.4910  -1.4800  -1.4800  -1.4792  -1.4792
    -1.4120  -1.4120  -1.4080  -1.4080  -1.4075  -1.4075  -1.4036  -1.4036
    -1.3885  -1.3885  -1.3822  -1.3822  -1.3820  -1.3820  -1.3795  -1.3795
    -1.3118  -1.3118  -1.3096  -1.3096  -1.3030  -1.3030  -1.3016  -1.3016
    -0.3387  -0.3387  -0.2794  -0.2794  -0.1895  -0.1895   1.1173   1.1173
     2.0282   2.0282   2.0575   2.0575   2.2025   2.2025   2.6407   2.6407
     4.2590   4.2590   4.3223   4.3223   4.3288   4.3288   4.9264   4.9264
     5.5730   5.5730   5.5834   5.5834   5.9730   5.9730   6.0051   6.0051
     6.0575   6.0575   6.0639   6.0639   6.1951   6.1951   6.4091   6.4091
     6.5372   6.5372   6.5561   6.5561   6.6104   6.6104   6.6120   6.6120
     6.6540   6.6540   6.6783   6.6783   6.7090   6.7090   6.7104   6.7104
     6.8178   6.8178   6.8664   6.8664   6.8735   6.8735   6.9660   6.9660
     7.0764   7.0764   7.1918   7.1918   7.2084   7.2084   7.2352   7.2352
     7.2695   7.2695   7.2700   7.2700   7.2799   7.2799   7.2816   7.2816
     7.5393   7.5393   7.5569   7.5569   7.5817   7.5817   7.5960   7.5960
     7.6128   7.6128   7.6274   7.6274   7.6907   7.6907   7.7331   7.7331
     7.7801   7.7801   7.8280   7.8280   7.8316   7.8316   7.8519   7.8519
     7.8630   7.8630   7.9018   7.9018   7.9315   7.9315   7.9510   7.9510
     7.9766   7.9766   8.0061   8.0061   8.0536   8.0536   8.0603   8.0603
     8.0753   8.0753   8.1060   8.1060   8.1293   8.1293   8.1371   8.1371
     8.2896   8.2896   8.3153   8.3153   8.3328   8.3328   8.3593   8.3593
     8.3596   8.3596   8.3666   8.3666   8.4258   8.4258   8.4439   8.4439
     9.4993   9.4993   9.6159   9.6159   9.6580   9.6580  10.3387  10.3387
    11.7094  11.7094  11.7636  11.7636  11.9142  11.9142  12.3377  12.3377
    14.0436  14.0436  14.0892  14.0892  14.1399  14.1399  14.4094  14.4094
    14.4112  14.4112  14.4113  14.4113  14.4257  14.4257  14.6581  14.6581
    14.8089  14.8089  14.8228  14.8228  14.8612  14.8612  14.8647  14.8647
    14.8721  14.8721  14.8979  14.8979  14.9148  14.9148  14.9869  14.9869
    15.3862  15.3862  15.4043  15.4043  15.4112  15.4112  15.5576  15.5576
    15.6592  15.6592  15.6669  15.6669  15.6701  15.6701  15.6853  15.6853
    15.6893  15.6893  15.6933  15.6933  15.7037  15.7037  15.7183  15.7183
    15.9085  15.9085  15.9092  15.9092  15.9344  15.9344  15.9518  15.9518
    15.9992  15.9992  16.0290  16.0290  16.0370  16.0370  16.0424  16.0424
    16.2062  16.2062  16.2140  16.2140  16.2354  16.2354  16.4207  16.4221

          k = 0.2500 0.2500 0.2500 ( 49472 PWs)   bands (ev):

   -16.8646 -16.8646 -16.8449 -16.8449 -16.8448 -16.8448 -16.8447 -16.8447
   -16.8283 -16.8283 -16.8282 -16.8282 -16.8282 -16.8282 -16.8132 -16.8132
   -14.5682 -14.5682 -14.5452 -14.5452 -14.5047 -14.5047 -14.4906 -14.4906
   -14.4494 -14.4494 -14.4443 -14.4443 -11.7970 -11.7970 -11.7339 -11.7339
   -11.6788 -11.6788 -11.6619 -11.6619 -11.6406 -11.6406 -11.6338 -11.6338
   -11.4907 -11.4907 -11.4389 -11.4389 -11.3850 -11.3850  -8.9147  -8.9147
    -8.8130  -8.8130  -8.7040  -8.7040  -8.7017  -8.7017  -8.6589  -8.6589
    -8.6405  -8.6405  -8.5586  -8.5586  -8.4776  -8.4776  -8.3970  -8.3970
    -8.3495  -8.3495  -8.2318  -8.2318  -8.1181  -8.1181  -8.0806  -8.0806
    -7.9232  -7.9232  -7.9053  -7.9053  -7.7905  -7.7905  -7.6951  -7.6951
    -7.5987  -7.5987  -7.5685  -7.5685  -7.3692  -7.3692  -7.2748  -7.2748
    -7.2618  -7.2618  -7.2462  -7.2462  -7.1576  -7.1576  -7.0678  -7.0678
    -7.0207  -7.0207  -6.9897  -6.9897  -6.9071  -6.9071  -6.9011  -6.9011
    -6.8014  -6.8014  -6.7745  -6.7745  -6.7580  -6.7580  -6.7256  -6.7256
    -6.7171  -6.7171  -5.2345  -5.2345  -5.2263  -5.2263  -5.1477  -5.1477
    -5.1366  -5.1366  -5.1211  -5.1211  -5.0957  -5.0957  -5.0930  -5.0930
    -4.9399  -4.9399  -4.9312  -4.9312  -4.8442  -4.8442  -4.6137  -4.6137
    -4.4932  -4.4932  -4.2994  -4.2994  -4.1836  -4.1836  -3.9913  -3.9913
    -3.5005  -3.5005  -3.4083  -3.4083  -3.4039  -3.4039  -3.4001  -3.4001
    -3.3879  -3.3879  -3.3631  -3.3631  -3.3621  -3.3621  -3.3596  -3.3596
    -1.5897  -1.5897  -1.5347  -1.5347  -1.4784  -1.4784  -1.4633  -1.4633
    -1.4492  -1.4492  -1.4003  -1.4003  -1.3819  -1.3819  -1.3675  -1.3675
    -1.3653  -1.3653  -1.3580  -1.3580  -1.3532  -1.3532  -1.3417  -1.3417
    -1.3329  -1.3329  -1.3189  -1.3189  -1.3037  -1.3037  -1.2902  -1.2902
    -0.8908  -0.8908  -0.0948  -0.0948   0.3740   0.3740   1.3959   1.3959
     1.5683   1.5683   2.1192   2.1192   2.4126   2.4126   2.9830   2.9830
     4.2759   4.2759   4.6095   4.6095   4.7937   4.7937   4.8932   4.8932
     5.0417   5.0417   5.1604   5.1604   5.2751   5.2751   5.4251   5.4251
     5.4890   5.4890   5.7075   5.7075   5.8331   5.8331   6.4572   6.4572
     6.4998   6.4998   6.5304   6.5304   6.5648   6.5648   6.5987   6.5987
     6.6242   6.6242   6.6448   6.6448   6.9030   6.9030   6.9986   6.9986
     7.0742   7.0742   7.0956   7.0956   7.1423   7.1423   7.1756   7.1756
     7.2211   7.2211   7.2345   7.2345   7.2576   7.2576   7.2960   7.2960
     7.3102   7.3102   7.3511   7.3511   7.4455   7.4455   7.4680   7.4680
     7.4926   7.4926   7.5195   7.5195   7.5372   7.5372   7.5552   7.5552
     7.5924   7.5924   7.6371   7.6371   7.6519   7.6519   7.6852   7.6852
     7.7316   7.7316   7.7541   7.7541   7.7672   7.7672   7.8108   7.8108
     7.8130   7.8130   7.8845   7.8845   7.9333   7.9333   7.9648   7.9648
     7.9945   7.9945   8.0066   8.0066   8.0616   8.0616   8.0718   8.0718
     8.0805   8.0805   8.0845   8.0845   8.1180   8.1180   8.1582   8.1582
     8.2107   8.2107   8.2929   8.2929   8.3568   8.3568   8.3677   8.3677
     8.4497   8.4497   8.5321   8.5321   8.5428   8.5428   8.5816   8.5816
     8.5911   8.5911  10.1216  10.1216  10.3871  10.3871  10.9567  10.9567
    11.3094  11.3094  11.7818  11.7818  12.1443  12.1443  12.3476  12.3476
    13.5856  13.5856  13.8816  13.8816  13.8958  13.8958  14.0511  14.0511
    14.3384  14.3384  14.6061  14.6061  14.6690  14.6690  14.7266  14.7266
    14.7367  14.7367  14.7524  14.7524  14.8330  14.8330  14.8609  14.8609
    14.8939  14.8939  14.9494  14.9494  15.0330  15.0330  15.1204  15.1204
    15.2131  15.2131  15.2949  15.2949  15.4834  15.4834  15.5503  15.5503
    15.5865  15.5865  15.6054  15.6054  15.6587  15.6587  15.6798  15.6798
    15.7055  15.7055  15.7523  15.7523  15.8321  15.8321  15.8622  15.8622
    15.8701  15.8701  15.8947  15.8947  15.9270  15.9270  15.9348  15.9348
    15.9670  15.9670  16.0190  16.0190  16.0913  16.0913  16.1292  16.1292
    16.3122  16.3122  16.3540  16.3540  16.4143  16.4143  16.6347  16.6349

          k = 0.2500 0.2500-0.5000 ( 49498 PWs)   bands (ev):

   -16.8550 -16.8550 -16.8545 -16.8545 -16.8367 -16.8367 -16.8366 -16.8366
   -16.8364 -16.8364 -16.8364 -16.8364 -16.8209 -16.8209 -16.8206 -16.8206
   -14.5605 -14.5605 -14.5452 -14.5452 -14.5120 -14.5120 -14.4906 -14.4906
   -14.4494 -14.4494 -14.4441 -14.4441 -11.7548 -11.7548 -11.7339 -11.7339
   -11.7079 -11.7079 -11.6788 -11.6788 -11.6406 -11.6406 -11.6320 -11.6320
   -11.4906 -11.4906 -11.4391 -11.4391 -11.3850 -11.3850  -8.8635  -8.8635
    -8.7906  -8.7906  -8.7393  -8.7393  -8.6528  -8.6528  -8.6097  -8.6097
    -8.5601  -8.5601  -8.5251  -8.5251  -8.4801  -8.4801  -8.4354  -8.4354
    -8.3605  -8.3605  -8.2685  -8.2685  -8.2468  -8.2468  -8.1495  -8.1495
    -8.0135  -8.0135  -7.9777  -7.9777  -7.8956  -7.8956  -7.7812  -7.7812
    -7.6221  -7.6221  -7.3692  -7.3692  -7.3284  -7.3284  -7.2693  -7.2693
    -7.2563  -7.2563  -7.2464  -7.2464  -7.1246  -7.1246  -6.9954  -6.9954
    -6.9693  -6.9693  -6.9363  -6.9363  -6.8847  -6.8847  -6.8460  -6.8460
    -6.8437  -6.8437  -6.8116  -6.8116  -6.7954  -6.7954  -6.7817  -6.7817
    -6.7179  -6.7179  -5.2310  -5.2310  -5.2252  -5.2252  -5.1505  -5.1505
    -5.1374  -5.1374  -5.0951  -5.0951  -5.0527  -5.0527  -4.9290  -4.9290
    -4.8456  -4.8456  -4.7118  -4.7118  -4.6865  -4.6865  -4.6268  -4.6268
    -4.6111  -4.6111  -4.5628  -4.5628  -4.3644  -4.3644  -4.0577  -4.0577
    -3.4560  -3.4560  -3.4501  -3.4501  -3.3863  -3.3863  -3.3845  -3.3845
    -3.3807  -3.3807  -3.3801  -3.3801  -3.3737  -3.3737  -3.3720  -3.3720
    -1.5318  -1.5318  -1.5292  -1.5292  -1.4465  -1.4465  -1.4422  -1.4422
    -1.4339  -1.4339  -1.4302  -1.4302  -1.4051  -1.4051  -1.4044  -1.4044
    -1.3906  -1.3906  -1.3866  -1.3866  -1.3396  -1.3396  -1.3379  -1.3379
    -1.3155  -1.3155  -1.3152  -1.3152  -1.3077  -1.3077  -1.3070  -1.3070
    -0.5286  -0.5286  -0.3098  -0.3098   0.0876   0.0876   1.3398   1.3398
     1.7002   1.7002   1.8790   1.8790   2.1719   2.1719   2.6385   2.6385
     4.5857   4.5857   4.7282   4.7282   4.8450   4.8450   5.0313   5.0313
     5.0933   5.0933   5.2818   5.2818   5.4388   5.4388   5.6451   5.6451
     5.9913   5.9913   5.9984   5.9984   6.4713   6.4713   6.4778   6.4778
     6.5115   6.5115   6.5245   6.5245   6.5673   6.5673   6.6002   6.6002
     6.6717   6.6717   6.6862   6.6862   6.7148   6.7148   6.7214   6.7214
     6.7539   6.7539   6.8068   6.8068   7.1014   7.1014   7.1092   7.1092
     7.1238   7.1238   7.2099   7.2099   7.2148   7.2148   7.2405   7.2405
     7.2711   7.2711   7.2888   7.2888   7.3715   7.3715   7.4052   7.4052
     7.4520   7.4520   7.4713   7.4713   7.4813   7.4813   7.5276   7.5276
     7.5333   7.5333   7.5536   7.5536   7.6243   7.6243   7.6507   7.6507
     7.7759   7.7759   7.8283   7.8283   7.8381   7.8381   7.8737   7.8737
     7.9181   7.9181   7.9392   7.9392   7.9886   7.9886   8.0092   8.0092
     8.0175   8.0175   8.0523   8.0523   8.1004   8.1004   8.1246   8.1246
     8.1373   8.1373   8.1413   8.1413   8.1628   8.1628   8.1797   8.1797
     8.2681   8.2681   8.2738   8.2738   8.2772   8.2772   8.3672   8.3672
     8.3800   8.3800   8.3912   8.3912   8.4454   8.4454   8.5825   8.5825
     9.1785   9.1785   9.3863   9.3863  10.2616  10.2616  10.8762  10.8762
    11.2667  11.2667  11.5042  11.5042  11.6985  11.6985  12.2033  12.2033
    13.9970  13.9970  14.1433  14.1433  14.2675  14.2675  14.2704  14.2704
    14.3765  14.3765  14.3985  14.3985  14.5565  14.5565  14.6092  14.6092
    14.6194  14.6194  14.8062  14.8062  14.8806  14.8806  14.9153  14.9153
    14.9793  14.9793  15.0242  15.0242  15.0742  15.0742  15.1096  15.1096
    15.1791  15.1791  15.2091  15.2091  15.4806  15.4806  15.5296  15.5296
    15.5461  15.5461  15.5661  15.5661  15.6838  15.6838  15.6969  15.6969
    15.7252  15.7252  15.7853  15.7853  15.8081  15.8081  15.8199  15.8199
    15.8571  15.8571  15.8888  15.8888  15.9637  15.9637  15.9788  15.9788
    15.9877  15.9877  16.0059  16.0059  16.1259  16.1259  16.1439  16.1439
    16.2012  16.2012  16.2286  16.2286  16.3117  16.3117  16.3474  16.3477

          k = 0.2500-0.5000-0.5000 ( 49512 PWs)   bands (ev):

   -16.8460 -16.8460 -16.8457 -16.8457 -16.8457 -16.8457 -16.8452 -16.8452
   -16.8290 -16.8290 -16.8286 -16.8286 -16.8286 -16.8286 -16.8284 -16.8284
   -14.5605 -14.5605 -14.5451 -14.5451 -14.5120 -14.5120 -14.4904 -14.4904
   -14.4493 -14.4493 -14.4441 -14.4441 -11.7544 -11.7544 -11.7324 -11.7324
   -11.7075 -11.7075 -11.6774 -11.6774 -11.6392 -11.6392 -11.6314 -11.6314
   -11.4906 -11.4906 -11.4390 -11.4390 -11.3850 -11.3850  -8.7658  -8.7658
    -8.7061  -8.7061  -8.7029  -8.7029  -8.6416  -8.6416  -8.5967  -8.5967
    -8.5879  -8.5879  -8.5421  -8.5421  -8.4973  -8.4973  -8.4517  -8.4517
    -8.3774  -8.3774  -8.3185  -8.3185  -8.3075  -8.3075  -8.2993  -8.2993
    -8.0402  -8.0402  -8.0210  -8.0210  -7.9902  -7.9902  -7.9095  -7.9095
    -7.6871  -7.6871  -7.3243  -7.3243  -7.2661  -7.2661  -7.2482  -7.2482
    -7.1095  -7.1095  -7.0639  -7.0639  -7.0018  -7.0018  -6.9691  -6.9691
    -6.9607  -6.9607  -6.9034  -6.9034  -6.8965  -6.8965  -6.8669  -6.8669
    -6.8540  -6.8540  -6.8394  -6.8394  -6.8214  -6.8214  -6.7885  -6.7885
    -6.7523  -6.7523  -5.2282  -5.2282  -5.2281  -5.2281  -5.1444  -5.1444
    -5.1405  -5.1405  -5.0978  -5.0978  -4.9972  -4.9972  -4.7477  -4.7477
    -4.7470  -4.7470  -4.6728  -4.6728  -4.6687  -4.6687  -4.6405  -4.6405
    -4.6344  -4.6344  -4.5959  -4.5959  -4.5717  -4.5717  -4.1874  -4.1874
    -3.4213  -3.4213  -3.4204  -3.4204  -3.4199  -3.4199  -3.4132  -3.4132
    -3.3785  -3.3785  -3.3767  -3.3767  -3.3758  -3.3758  -3.3752  -3.3752
    -1.4892  -1.4892  -1.4866  -1.4866  -1.4775  -1.4775  -1.4758  -1.4758
    -1.4136  -1.4136  -1.4100  -1.4100  -1.4058  -1.4058  -1.4029  -1.4029
    -1.3854  -1.3854  -1.3832  -1.3832  -1.3803  -1.3803  -1.3763  -1.3763
    -1.3102  -1.3102  -1.3092  -1.3092  -1.3028  -1.3028  -1.3017  -1.3017
    -0.3106  -0.3106  -0.2576  -0.2576  -0.1505  -0.1505   1.2418   1.2418
     1.7047   1.7047   1.7202   1.7202   1.8714   1.8714   2.2339   2.2339
     4.7927   4.7927   4.8690   4.8690   4.8858   4.8858   5.4038   5.4038
     5.5987   5.5987   5.6298   5.6298   5.9889   5.9889   6.0338   6.0338
     6.0418   6.0418   6.0578   6.0578   6.1918   6.1918   6.3900   6.3900
     6.4735   6.4735   6.5110   6.5110   6.5694   6.5694   6.5786   6.5786
     6.5936   6.5936   6.6375   6.6375   6.6538   6.6538   6.6734   6.6734
     6.7512   6.7512   6.7609   6.7609   6.7991   6.7991   6.9705   6.9705
     7.1064   7.1064   7.1701   7.1701   7.1895   7.1895   7.1998   7.1998
     7.2438   7.2438   7.2791   7.2791   7.2910   7.2910   7.3024   7.3024
     7.3852   7.3852   7.4152   7.4152   7.4220   7.4220   7.4457   7.4457
     7.4573   7.4573   7.5118   7.5118   7.5307   7.5307   7.5687   7.5687
     7.8791   7.8791   7.9192   7.9192   7.9290   7.9290   7.9719   7.9719
     7.9957   7.9957   8.0187   8.0187   8.0713   8.0713   8.0743   8.0743
     8.0994   8.0994   8.1160   8.1160   8.1281   8.1281   8.1424   8.1424
     8.1622   8.1622   8.1742   8.1742   8.2138   8.2138   8.2535   8.2535
     8.2725   8.2725   8.3024   8.3024   8.3386   8.3386   8.3482   8.3482
     8.3497   8.3497   8.3535   8.3535   8.4175   8.4175   8.4337   8.4337
     9.5073   9.5073   9.6040   9.6040   9.6922   9.6922  10.4540  10.4540
    11.1632  11.1632  11.2040  11.2040  11.3722  11.3722  11.8000  11.8000
    14.3477  14.3477  14.3854  14.3854  14.4161  14.4161  14.5291  14.5291
    14.5368  14.5368  14.5563  14.5563  14.5651  14.5651  14.7700  14.7700
    14.7831  14.7831  14.7971  14.7971  14.8198  14.8198  14.8416  14.8416
    14.8494  14.8494  14.8588  14.8588  14.8890  14.8890  14.9353  14.9353
    15.3467  15.3467  15.3539  15.3539  15.3664  15.3664  15.5339  15.5339
    15.5797  15.5797  15.5944  15.5944  15.6050  15.6050  15.6407  15.6407
    15.6727  15.6727  15.6861  15.6861  15.7153  15.7153  15.7596  15.7596
    15.8037  15.8037  15.8123  15.8123  15.8274  15.8274  15.8751  15.8751
    15.9567  15.9567  15.9685  15.9685  15.9952  15.9952  16.0144  16.0144
    16.2043  16.2043  16.2102  16.2102  16.2218  16.2218  16.3202  16.3202

          k =-0.5000-0.5000-0.5000 ( 49232 PWs)   bands (ev):

   -16.8378 -16.8378 -16.8374 -16.8374 -16.8373 -16.8373 -16.8372 -16.8372
   -16.8372 -16.8372 -16.8370 -16.8370 -16.8370 -16.8370 -16.8366 -16.8366
   -14.5604 -14.5604 -14.5449 -14.5449 -14.5119 -14.5119 -14.4903 -14.4903
   -14.4491 -14.4491 -14.4440 -14.4440 -11.7539 -11.7539 -11.7310 -11.7310
   -11.7070 -11.7070 -11.6760 -11.6760 -11.6376 -11.6376 -11.6310 -11.6310
   -11.4906 -11.4906 -11.4390 -11.4390 -11.3850 -11.3850  -8.6530  -8.6530
    -8.6504  -8.6504  -8.5709  -8.5709  -8.5698  -8.5698  -8.5659  -8.5659
    -8.5501  -8.5501  -8.5486  -8.5486  -8.5181  -8.5181  -8.5168  -8.5168
    -8.4526  -8.4526  -8.4499  -8.4499  -8.4159  -8.4159  -8.3971  -8.3971
    -8.0968  -8.0968  -8.0967  -8.0967  -7.9716  -7.9716  -7.9702  -7.9702
    -7.9414  -7.9414  -7.1660  -7.1660  -7.1405  -7.1405  -7.0340  -7.0340
    -7.0319  -7.0319  -6.9820  -6.9820  -6.9455  -6.9455  -6.9377  -6.9377
    -6.9330  -6.9330  -6.9188  -6.9188  -6.9089  -6.9089  -6.9029  -6.9029
    -6.8909  -6.8909  -6.8760  -6.8760  -6.8378  -6.8378  -6.8207  -6.8207
    -6.7972  -6.7972  -5.2282  -5.2282  -5.2281  -5.2281  -5.1406  -5.1406
    -5.1403  -5.1403  -5.1018  -5.1018  -4.7628  -4.7628  -4.7623  -4.7623
    -4.6778  -4.6778  -4.6770  -4.6770  -4.6569  -4.6569  -4.6513  -4.6513
    -4.6156  -4.6156  -4.5736  -4.5736  -4.5704  -4.5704  -4.5364  -4.5364
    -3.4037  -3.4037  -3.4023  -3.4023  -3.4000  -3.4000  -3.3964  -3.3964
    -3.3951  -3.3951  -3.3949  -3.3949  -3.3947  -3.3947  -3.3908  -3.3908
    -1.4740  -1.4740  -1.4706  -1.4706  -1.4688  -1.4688  -1.4649  -1.4649
    -1.4408  -1.4408  -1.4375  -1.4375  -1.4373  -1.4373  -1.4335  -1.4335
    -1.3476  -1.3476  -1.3449  -1.3449  -1.3449  -1.3449  -1.3448  -1.3448
    -1.3206  -1.3206  -1.3198  -1.3198  -1.3195  -1.3195  -1.3179  -1.3179
    -0.2775  -0.2775  -0.2324  -0.2324  -0.1031  -0.1031   1.4417   1.4417
     1.4423   1.4423   1.5962   1.5962   1.6262   1.6262   1.6470   1.6470
     5.3310   5.3310   5.3674   5.3674   5.5897   5.5897   5.8160   5.8160
     5.8233   5.8233   5.8358   5.8358   5.9351   5.9351   6.0317   6.0317
     6.0628   6.0628   6.1601   6.1601   6.1877   6.1877   6.2101   6.2101
     6.3030   6.3030   6.4074   6.4074   6.4679   6.4679   6.4839   6.4839
     6.5349   6.5349   6.5576   6.5576   6.5628   6.5628   6.6359   6.6359
     6.6405   6.6405   6.6534   6.6534   6.6621   6.6621   6.6810   6.6810
     7.1240   7.1240   7.1273   7.1273   7.1526   7.1526   7.1546   7.1546
     7.2917   7.2917   7.3091   7.3091   7.3092   7.3092   7.3265   7.3265
     7.3321   7.3321   7.3333   7.3333   7.3412   7.3412   7.3420   7.3420
     7.3564   7.3564   7.3616   7.3616   7.5062   7.5062   7.5122   7.5122
     8.0490   8.0490   8.0591   8.0591   8.0679   8.0679   8.0814   8.0814
     8.1055   8.1055   8.1168   8.1168   8.1239   8.1239   8.1248   8.1248
     8.1387   8.1387   8.1402   8.1402   8.2140   8.2140   8.2270   8.2270
     8.2282   8.2282   8.2527   8.2527   8.2736   8.2736   8.2792   8.2792
     8.3187   8.3187   8.3237   8.3237   8.3301   8.3301   8.3436   8.3436
     8.3443   8.3443   8.3653   8.3653   8.3758   8.3758   8.3821   8.3821
     9.5262   9.5262   9.5839   9.5839   9.7702   9.7702  10.6613  10.6613
    10.6616  10.6616  10.8792  10.8792  10.9398  10.9398  10.9568  10.9568
    14.5202  14.5202  14.5408  14.5408  14.5834  14.5834  14.7069  14.7069
    14.7076  14.7076  14.7396  14.7396  14.7403  14.7403  14.7914  14.7914
    14.7934  14.7934  14.8019  14.8019  14.8103  14.8103  14.8206  14.8206
    14.8276  14.8276  14.8483  14.8483  14.8618  14.8618  14.8842  14.8842
    15.3081  15.3081  15.3321  15.3321  15.3362  15.3362  15.4852  15.4852
    15.4952  15.4952  15.5130  15.5130  15.5510  15.5510  15.5730  15.5730
    15.5754  15.5754  15.5860  15.5860  15.5956  15.5956  15.8251  15.8251
    15.8300  15.8300  15.8356  15.8356  15.8402  15.8402  15.8407  15.8407
    15.9181  15.9181  15.9262  15.9262  15.9508  15.9508  15.9623  15.9623
    15.9985  15.9985  15.9999  15.9999  16.0140  16.0140  16.0202  16.0202

          k = 0.0000 0.2500 0.0000 ( 49466 PWs)   bands (ev):

   -16.8729 -16.8729 -16.8517 -16.8517 -16.8440 -16.8440 -16.8440 -16.8440
   -16.8278 -16.8278 -16.8278 -16.8278 -16.8215 -16.8215 -16.8070 -16.8070
   -14.5744 -14.5744 -14.5453 -14.5453 -14.4989 -14.4989 -14.4907 -14.4907
   -14.4495 -14.4495 -14.4445 -14.4445 -11.8204 -11.8204 -11.7353 -11.7353
   -11.6803 -11.6803 -11.6422 -11.6422 -11.6368 -11.6368 -11.6347 -11.6347
   -11.4909 -11.4909 -11.4387 -11.4387 -11.3850 -11.3850  -8.9937  -8.9937
    -8.8858  -8.8858  -8.7801  -8.7801  -8.7457  -8.7457  -8.6869  -8.6869
    -8.6689  -8.6689  -8.5270  -8.5270  -8.4797  -8.4797  -8.3351  -8.3351
    -8.2732  -8.2732  -8.1434  -8.1434  -7.9317  -7.9317  -7.9252  -7.9252
    -7.7172  -7.7172  -7.6691  -7.6691  -7.6354  -7.6354  -7.6099  -7.6099
    -7.5693  -7.5693  -7.5557  -7.5557  -7.5245  -7.5245  -7.5015  -7.5015
    -7.3287  -7.3287  -7.3191  -7.3191  -7.2606  -7.2606  -7.2296  -7.2296
    -7.1538  -7.1538  -7.1149  -7.1149  -6.9898  -6.9898  -6.9147  -6.9147
    -6.7801  -6.7801  -6.7373  -6.7373  -6.7135  -6.7135  -6.6954  -6.6954
    -6.6850  -6.6850  -5.3085  -5.3085  -5.2796  -5.2796  -5.2405  -5.2405
    -5.2256  -5.2256  -5.1470  -5.1470  -5.1345  -5.1345  -5.0982  -5.0982
    -5.0913  -5.0913  -4.9795  -4.9795  -4.8854  -4.8854  -4.5524  -4.5524
    -4.4460  -4.4460  -4.1829  -4.1829  -4.0219  -4.0219  -3.8074  -3.8074
    -3.5408  -3.5408  -3.4239  -3.4239  -3.4107  -3.4107  -3.3909  -3.3909
    -3.3889  -3.3889  -3.3474  -3.3474  -3.3460  -3.3460  -3.3448  -3.3448
    -1.6355  -1.6355  -1.6157  -1.6157  -1.5087  -1.5087  -1.4559  -1.4559
    -1.4504  -1.4504  -1.3976  -1.3976  -1.3922  -1.3922  -1.3764  -1.3764
    -1.3334  -1.3334  -1.3296  -1.3296  -1.3199  -1.3199  -1.3146  -1.3146
    -1.3126  -1.3126  -1.3034  -1.3034  -1.3021  -1.3021  -1.2882  -1.2882
    -1.1465  -1.1465  -0.0716  -0.0716   0.7457   0.7457   1.4757   1.4757
     1.9428   1.9428   2.5265   2.5265   3.2108   3.2108   3.5523   3.5523
     3.9269   3.9269   4.2286   4.2286   4.3189   4.3189   4.3989   4.3989
     4.5809   4.5809   4.7796   4.7796   4.9650   4.9650   5.0681   5.0681
     5.1848   5.1848   5.2026   5.2026   5.5664   5.5664   6.3400   6.3400
     6.3607   6.3607   6.3929   6.3929   6.4334   6.4334   6.6202   6.6202
     6.6284   6.6284   6.6866   6.6866   7.0390   7.0390   7.1543   7.1543
     7.1795   7.1795   7.1852   7.1852   7.2023   7.2023   7.2762   7.2762
     7.2902   7.2902   7.3103   7.3103   7.3559   7.3559   7.3792   7.3792
     7.4394   7.4394   7.4472   7.4472   7.4542   7.4542   7.4628   7.4628
     7.4769   7.4769   7.4975   7.4975   7.6117   7.6117   7.6163   7.6163
     7.6662   7.6662   7.6784   7.6784   7.7198   7.7198   7.7345   7.7345
     7.7499   7.7499   7.7759   7.7759   7.7922   7.7922   7.8094   7.8094
     7.8224   7.8224   7.8339   7.8339   7.8558   7.8558   7.8729   7.8729
     7.8959   7.8959   7.9613   7.9613   7.9674   7.9674   8.0164   8.0164
     8.0298   8.0298   8.0725   8.0725   8.1452   8.1452   8.1785   8.1785
     8.2874   8.2874   8.3312   8.3312   8.3961   8.3961   8.4393   8.4393
     8.5366   8.5366   8.5532   8.5532   8.5802   8.5802   8.5979   8.5979
     8.7071   8.7071  10.2050  10.2050  10.9590  10.9590  11.2965  11.2965
    11.9137  11.9137  12.2325  12.2325  12.5341  12.5341  13.0156  13.0156
    13.3624  13.3624  13.5183  13.5183  13.5286  13.5286  13.5403  13.5403
    13.8837  13.8837  14.4285  14.4285  14.5282  14.5282  14.5392  14.5392
    14.6661  14.6661  14.7908  14.7908  14.8464  14.8464  14.8934  14.8934
    14.9248  14.9248  14.9663  14.9663  14.9837  14.9837  15.0568  15.0568
    15.2347  15.2347  15.3484  15.3484  15.3851  15.3851  15.4322  15.4322
    15.4532  15.4532  15.5332  15.5332  15.5416  15.5416  15.6177  15.6177
    15.6319  15.6319  15.6987  15.6987  15.7174  15.7174  15.7954  15.7954
    15.8197  15.8197  16.0054  16.0054  16.1067  16.1067  16.2162  16.2162
    16.2727  16.2727  16.3302  16.3302  16.3469  16.3469  16.3974  16.3974
    16.4211  16.4211  16.4524  16.4524  16.5003  16.5003  16.5302  16.5307

          k = 0.0000-0.5000 0.0000 ( 49454 PWs)   bands (ev):

   -16.8626 -16.8626 -16.8620 -16.8620 -16.8360 -16.8360 -16.8360 -16.8360
   -16.8358 -16.8358 -16.8358 -16.8358 -16.8144 -16.8144 -16.8141 -16.8141
   -14.5744 -14.5744 -14.5452 -14.5452 -14.4989 -14.4989 -14.4906 -14.4906
   -14.4494 -14.4494 -14.4444 -14.4444 -11.8201 -11.8201 -11.7339 -11.7339
   -11.6789 -11.6789 -11.6411 -11.6411 -11.6352 -11.6352 -11.6347 -11.6347
   -11.4909 -11.4909 -11.4387 -11.4387 -11.3850 -11.3850  -8.9103  -8.9103
    -8.8458  -8.8458  -8.7785  -8.7785  -8.7577  -8.7577  -8.7020  -8.7020
    -8.6035  -8.6035  -8.5565  -8.5565  -8.4622  -8.4622  -8.4341  -8.4341
    -8.2992  -8.2992  -8.2512  -8.2512  -8.1334  -8.1334  -7.9229  -7.9229
    -7.7711  -7.7711  -7.6897  -7.6897  -7.6338  -7.6338  -7.5935  -7.5935
    -7.5703  -7.5703  -7.5560  -7.5560  -7.5297  -7.5297  -7.4893  -7.4893
    -7.2993  -7.2993  -7.2922  -7.2922  -7.2369  -7.2369  -7.2105  -7.2105
    -7.1628  -7.1628  -6.9026  -6.9026  -6.9004  -6.9004  -6.8107  -6.8107
    -6.8088  -6.8088  -6.7888  -6.7888  -6.7578  -6.7578  -6.7001  -6.7001
    -6.6937  -6.6937  -5.3011  -5.3011  -5.2496  -5.2496  -5.2325  -5.2325
    -5.2316  -5.2316  -5.1434  -5.1434  -5.1367  -5.1367  -5.1149  -5.1149
    -5.0940  -5.0940  -4.7925  -4.7925  -4.7381  -4.7381  -4.5942  -4.5942
    -4.5135  -4.5135  -4.3251  -4.3251  -4.0886  -4.0886  -3.8607  -3.8607
    -3.4870  -3.4870  -3.4786  -3.4786  -3.3771  -3.3771  -3.3747  -3.3747
    -3.3691  -3.3691  -3.3687  -3.3687  -3.3675  -3.3675  -3.3664  -3.3664
    -1.5742  -1.5742  -1.5695  -1.5695  -1.5043  -1.5043  -1.4955  -1.4955
    -1.3942  -1.3942  -1.3932  -1.3932  -1.3876  -1.3876  -1.3871  -1.3871
    -1.3550  -1.3550  -1.3540  -1.3540  -1.3463  -1.3463  -1.3435  -1.3435
    -1.3135  -1.3135  -1.3119  -1.3119  -1.3065  -1.3065  -1.3032  -1.3032
    -0.9379  -0.9379  -0.3426  -0.3426   0.7899   0.7899   1.5154   1.5154
     1.6123   1.6123   2.1319   2.1319   3.2937   3.2937   3.4035   3.4035
     3.8161   3.8161   4.1607   4.1607   4.3316   4.3316   4.4073   4.4073
     4.5617   4.5617   4.8367   4.8367   4.9358   4.9358   5.0651   5.0651
     6.3100   6.3100   6.3231   6.3231   6.3382   6.3382   6.3587   6.3587
     6.4783   6.4783   6.5287   6.5287   6.5501   6.5501   6.5695   6.5695
     6.6174   6.6174   6.6310   6.6310   6.6411   6.6411   6.8665   6.8665
     6.9000   6.9000   6.9079   6.9079   7.1549   7.1549   7.1839   7.1839
     7.2257   7.2257   7.2326   7.2326   7.2968   7.2968   7.3482   7.3482
     7.4006   7.4006   7.4097   7.4097   7.4436   7.4436   7.5271   7.5271
     7.5275   7.5275   7.5404   7.5404   7.5517   7.5517   7.5538   7.5538
     7.5729   7.5729   7.6024   7.6024   7.6766   7.6766   7.7125   7.7125
     7.7371   7.7371   7.7645   7.7645   7.7888   7.7888   7.8261   7.8261
     7.8767   7.8767   7.8814   7.8814   7.9402   7.9402   7.9507   7.9507
     7.9636   7.9636   7.9939   7.9939   8.0152   8.0152   8.0200   8.0200
     8.0657   8.0657   8.0901   8.0901   8.0917   8.0917   8.1717   8.1717
     8.2090   8.2090   8.2607   8.2607   8.3171   8.3171   8.3444   8.3444
     8.3808   8.3808   8.4930   8.4930   8.5553   8.5553   8.7039   8.7039
     8.9706   8.9706   9.1725   9.1725  11.0369  11.0369  11.4363  11.4363
    11.4455  11.4455  11.9853  11.9853  12.7174  12.7174  12.8451  12.8451
    13.4776  13.4776  13.6513  13.6513  14.0191  14.0191  14.0192  14.0192
    14.0543  14.0543  14.0768  14.0768  14.0977  14.0977  14.3449  14.3449
    14.6393  14.6393  14.7055  14.7055  14.8000  14.8000  14.9911  14.9911
    14.9987  14.9987  15.0528  15.0528  15.1792  15.1792  15.2649  15.2649
    15.2963  15.2963  15.4797  15.4797  15.5206  15.5206  15.5365  15.5365
    15.5479  15.5479  15.5487  15.5487  15.5972  15.5972  15.6345  15.6345
    15.7367  15.7367  15.7848  15.7848  15.8373  15.8373  15.8467  15.8467
    15.9498  15.9498  15.9501  15.9501  16.0883  16.0883  16.0977  16.0977
    16.1194  16.1194  16.1229  16.1229  16.1357  16.1357  16.1480  16.1480
    16.1688  16.1688  16.1722  16.1722  16.1765  16.1765  16.4024  16.4024

          k = 0.2500 0.2500 0.0000 ( 49490 PWs)   bands (ev):

   -16.8687 -16.8687 -16.8483 -16.8483 -16.8481 -16.8481 -16.8407 -16.8407
   -16.8313 -16.8313 -16.8249 -16.8249 -16.8247 -16.8247 -16.8101 -16.8101
   -14.5744 -14.5744 -14.5452 -14.5452 -14.4989 -14.4989 -14.4906 -14.4906
   -14.4494 -14.4494 -14.4444 -14.4444 -11.8201 -11.8201 -11.7339 -11.7339
   -11.6789 -11.6789 -11.6406 -11.6406 -11.6361 -11.6361 -11.6344 -11.6344
   -11.4909 -11.4909 -11.4387 -11.4387 -11.3850 -11.3850  -8.9425  -8.9425
    -8.8530  -8.8530  -8.7773  -8.7773  -8.7291  -8.7291  -8.6450  -8.6450
    -8.6404  -8.6404  -8.5587  -8.5587  -8.4843  -8.4843  -8.3813  -8.3813
    -8.3044  -8.3044  -8.2252  -8.2252  -8.0827  -8.0827  -7.9253  -7.9253
    -7.8853  -7.8853  -7.8396  -7.8396  -7.8064  -7.8064  -7.5493  -7.5493
    -7.5340  -7.5340  -7.4810  -7.4810  -7.4298  -7.4298  -7.3693  -7.3693
    -7.3111  -7.3111  -7.2756  -7.2756  -7.2409  -7.2409  -7.1725  -7.1725
    -7.1023  -7.1023  -7.0059  -7.0059  -6.9332  -6.9332  -6.8919  -6.8919
    -6.8009  -6.8009  -6.7469  -6.7469  -6.7187  -6.7187  -6.7123  -6.7123
    -6.6934  -6.6934  -5.2807  -5.2807  -5.2582  -5.2582  -5.2376  -5.2376
    -5.2271  -5.2271  -5.1443  -5.1443  -5.1351  -5.1351  -5.0943  -5.0943
    -4.9840  -4.9840  -4.9551  -4.9551  -4.8439  -4.8439  -4.6137  -4.6137
    -4.4530  -4.4530  -4.2378  -4.2378  -4.0441  -4.0441  -3.9078  -3.9078
    -3.5197  -3.5197  -3.4171  -3.4171  -3.4085  -3.4085  -3.3972  -3.3972
    -3.3831  -3.3831  -3.3580  -3.3580  -3.3542  -3.3542  -3.3511  -3.3511
    -1.6112  -1.6112  -1.5740  -1.5740  -1.4943  -1.4943  -1.4681  -1.4681
    -1.4358  -1.4358  -1.3971  -1.3971  -1.3749  -1.3749  -1.3649  -1.3649
    -1.3569  -1.3569  -1.3535  -1.3535  -1.3478  -1.3478  -1.3305  -1.3305
    -1.3177  -1.3177  -1.3135  -1.3135  -1.3083  -1.3083  -1.2868  -1.2868
    -1.0476  -1.0476  -0.1301  -0.1301   0.7708   0.7708   1.2747   1.2747
     1.7003   1.7003   2.2889   2.2889   2.8342   2.8342   3.3438   3.3438
     3.8014   3.8014   4.3222   4.3222   4.7079   4.7079   4.7508   4.7508
     4.8494   4.8494   5.0560   5.0560   5.0593   5.0593   5.2385   5.2385
     5.2968   5.2968   5.5944   5.5944   5.6885   5.6885   6.4278   6.4278
     6.4342   6.4342   6.4920   6.4920   6.5128   6.5128   6.6181   6.6181
     6.6457   6.6457   6.6584   6.6584   6.9954   6.9954   7.0769   7.0769
     7.1057   7.1057   7.1481   7.1481   7.1880   7.1880   7.2330   7.2330
     7.2524   7.2524   7.2648   7.2648   7.2909   7.2909   7.3034   7.3034
     7.3725   7.3725   7.3753   7.3753   7.4583   7.4583   7.5038   7.5038
     7.5267   7.5267   7.5621   7.5621   7.5898   7.5898   7.6159   7.6159
     7.6425   7.6425   7.6570   7.6570   7.6987   7.6987   7.7231   7.7231
     7.7309   7.7309   7.7468   7.7468   7.7590   7.7590   7.8168   7.8168
     7.8477   7.8477   7.8501   7.8501   7.8749   7.8749   7.8851   7.8851
     7.8974   7.8974   7.9159   7.9159   8.0473   8.0473   8.0584   8.0584
     8.0650   8.0650   8.0775   8.0775   8.0858   8.0858   8.2023   8.2023
     8.2247   8.2247   8.3522   8.3522   8.3693   8.3693   8.3769   8.3769
     8.4017   8.4017   8.5000   8.5000   8.5482   8.5482   8.5760   8.5760
     8.6385   8.6385  10.0974  10.0974  10.8478  10.8478  10.9684  10.9684
    11.5539  11.5539  12.0733  12.0733  12.4542  12.4542  12.6687  12.6687
    13.3732  13.3732  13.6961  13.6961  13.7514  13.7514  13.8049  13.8049
    14.0506  14.0506  14.5526  14.5526  14.6073  14.6073  14.6150  14.6150
    14.7358  14.7358  14.7789  14.7789  14.8361  14.8361  14.8859  14.8859
    14.9406  14.9406  14.9909  14.9909  14.9987  14.9987  15.1217  15.1217
    15.2424  15.2424  15.3204  15.3204  15.4588  15.4588  15.5481  15.5481
    15.5707  15.5707  15.5973  15.5973  15.6111  15.6111  15.6468  15.6468
    15.6781  15.6781  15.7030  15.7030  15.7222  15.7222  15.7697  15.7697
    15.8067  15.8067  15.9408  15.9408  15.9802  15.9802  15.9994  15.9994
    16.1394  16.1394  16.2235  16.2235  16.2666  16.2666  16.3122  16.3122
    16.3714  16.3714  16.3787  16.3787  16.4585  16.4585  16.4616  16.4616

          k = 0.2500-0.5000 0.0000 ( 49470 PWs)   bands (ev):

   -16.8588 -16.8588 -16.8582 -16.8582 -16.8399 -16.8399 -16.8397 -16.8397
   -16.8329 -16.8329 -16.8326 -16.8326 -16.8176 -16.8176 -16.8173 -16.8173
   -14.5743 -14.5743 -14.5451 -14.5451 -14.4989 -14.4989 -14.4904 -14.4904
   -14.4493 -14.4493 -14.4444 -14.4444 -11.8198 -11.8198 -11.7325 -11.7325
   -11.6775 -11.6775 -11.6393 -11.6393 -11.6350 -11.6350 -11.6342 -11.6342
   -11.4909 -11.4909 -11.4387 -11.4387 -11.3850 -11.3850  -8.8538  -8.8538
    -8.8048  -8.8048  -8.7676  -8.7676  -8.7547  -8.7547  -8.6370  -8.6370
    -8.6011  -8.6011  -8.5693  -8.5693  -8.4702  -8.4702  -8.4430  -8.4430
    -8.3501  -8.3501  -8.2701  -8.2701  -8.2171  -8.2171  -8.0402  -8.0402
    -7.9299  -7.9299  -7.9055  -7.9055  -7.8556  -7.8556  -7.5687  -7.5687
    -7.5368  -7.5368  -7.4615  -7.4615  -7.4288  -7.4288  -7.2929  -7.2929
    -7.2926  -7.2926  -7.2621  -7.2621  -7.1890  -7.1890  -7.1025  -7.1025
    -6.9749  -6.9749  -6.9157  -6.9157  -6.9071  -6.9071  -6.8182  -6.8182
    -6.8166  -6.8166  -6.7949  -6.7949  -6.7633  -6.7633  -6.7150  -6.7150
    -6.7039  -6.7039  -5.2660  -5.2660  -5.2520  -5.2520  -5.2319  -5.2319
    -5.2314  -5.2314  -5.1403  -5.1403  -5.1367  -5.1367  -5.0975  -5.0975
    -4.9675  -4.9675  -4.7761  -4.7761  -4.7474  -4.7474  -4.6128  -4.6128
    -4.5370  -4.5370  -4.3602  -4.3602  -4.0990  -4.0990  -3.9789  -3.9789
    -3.4710  -3.4710  -3.4637  -3.4637  -3.3858  -3.3858  -3.3853  -3.3853
    -3.3747  -3.3747  -3.3720  -3.3720  -3.3668  -3.3668  -3.3665  -3.3665
    -1.5497  -1.5497  -1.5476  -1.5476  -1.4765  -1.4765  -1.4699  -1.4699
    -1.4166  -1.4166  -1.4151  -1.4151  -1.3926  -1.3926  -1.3912  -1.3912
    -1.3731  -1.3731  -1.3681  -1.3681  -1.3413  -1.3413  -1.3391  -1.3391
    -1.3274  -1.3274  -1.3270  -1.3270  -1.3019  -1.3019  -1.2994  -1.2994
    -0.8953  -0.8953  -0.2655  -0.2655   0.7987   0.7987   1.2862   1.2862
     1.2952   1.2952   2.0909   2.0909   2.8025   2.8025   2.9924   2.9924
     3.7814   3.7814   4.3420   4.3420   4.8041   4.8041   4.8391   4.8391
     4.9741   4.9741   5.0706   5.0706   5.1402   5.1402   5.5573   5.5573
     6.2427   6.2427   6.2683   6.2683   6.3721   6.3721   6.4062   6.4062
     6.5148   6.5148   6.5276   6.5276   6.5569   6.5569   6.5686   6.5686
     6.5754   6.5754   6.5874   6.5874   6.6925   6.6925   6.8219   6.8219
     6.8330   6.8330   6.8845   6.8845   7.1415   7.1415   7.1514   7.1514
     7.1644   7.1644   7.1941   7.1941   7.2501   7.2501   7.2714   7.2714
     7.2999   7.2999   7.3536   7.3536   7.4041   7.4041   7.4235   7.4235
     7.5133   7.5133   7.5458   7.5458   7.5818   7.5818   7.5958   7.5958
     7.6231   7.6231   7.6548   7.6548   7.7257   7.7257   7.7535   7.7535
     7.7634   7.7634   7.7795   7.7795   7.7868   7.7868   7.7987   7.7987
     7.8631   7.8631   7.8978   7.8978   7.9363   7.9363   7.9491   7.9491
     7.9627   7.9627   7.9658   7.9658   7.9927   7.9927   8.0146   8.0146
     8.0495   8.0495   8.1418   8.1418   8.1443   8.1443   8.1886   8.1886
     8.1980   8.1980   8.2292   8.2292   8.3135   8.3135   8.3382   8.3382
     8.3932   8.3932   8.4123   8.4123   8.4905   8.4905   8.6157   8.6157
     9.0457   9.0457   9.3187   9.3187  10.8499  10.8499  10.9786  10.9786
    10.9867  10.9867  11.8903  11.8903  12.3733  12.3733  12.5694  12.5694
    13.5477  13.5477  13.9010  13.9010  14.1250  14.1250  14.1290  14.1290
    14.2714  14.2714  14.2935  14.2935  14.3680  14.3680  14.4789  14.4789
    14.7803  14.7803  14.8087  14.8087  14.8378  14.8378  14.8938  14.8938
    14.9251  14.9251  14.9927  14.9927  15.2051  15.2051  15.2922  15.2922
    15.3117  15.3117  15.4114  15.4114  15.4136  15.4136  15.4444  15.4444
    15.5545  15.5545  15.5613  15.5613  15.6206  15.6206  15.6623  15.6623
    15.6790  15.6790  15.7034  15.7034  15.8768  15.8768  15.9016  15.9016
    15.9975  15.9975  16.0233  16.0233  16.0359  16.0359  16.0621  16.0621
    16.0688  16.0688  16.0764  16.0764  16.0973  16.0973  16.1594  16.1594
    16.1729  16.1729  16.2175  16.2175  16.2480  16.2481  16.3787  16.3805

          k =-0.5000 0.0000 0.2500 ( 49470 PWs)   bands (ev):

   -16.8587 -16.8587 -16.8582 -16.8582 -16.8399 -16.8399 -16.8397 -16.8397
   -16.8329 -16.8329 -16.8326 -16.8326 -16.8176 -16.8176 -16.8173 -16.8173
   -14.5682 -14.5682 -14.5452 -14.5452 -14.5047 -14.5047 -14.4906 -14.4906
   -14.4494 -14.4494 -14.4443 -14.4443 -11.7970 -11.7970 -11.7339 -11.7339
   -11.6790 -11.6790 -11.6617 -11.6617 -11.6410 -11.6410 -11.6334 -11.6334
   -11.4907 -11.4907 -11.4389 -11.4389 -11.3850 -11.3850  -8.8810  -8.8810
    -8.8051  -8.8051  -8.7276  -8.7276  -8.6909  -8.6909  -8.6867  -8.6867
    -8.6583  -8.6583  -8.5524  -8.5524  -8.4773  -8.4773  -8.4396  -8.4396
    -8.3045  -8.3045  -8.3034  -8.3034  -8.1761  -8.1761  -8.0247  -8.0247
    -7.8555  -7.8555  -7.7737  -7.7737  -7.6855  -7.6855  -7.6478  -7.6478
    -7.6233  -7.6233  -7.5864  -7.5864  -7.5681  -7.5681  -7.3764  -7.3764
    -7.3489  -7.3489  -7.2369  -7.2369  -7.1151  -7.1151  -7.0412  -7.0412
    -7.0290  -7.0290  -6.9049  -6.9049  -6.9027  -6.9027  -6.8515  -6.8515
    -6.8172  -6.8172  -6.7963  -6.7963  -6.7679  -6.7679  -6.7364  -6.7364
    -6.7134  -6.7134  -5.2305  -5.2305  -5.2300  -5.2300  -5.2142  -5.2142
    -5.1455  -5.1455  -5.1387  -5.1387  -5.0942  -5.0942  -5.0572  -5.0572
    -5.0168  -5.0168  -4.7673  -4.7673  -4.7359  -4.7359  -4.5967  -4.5967
    -4.5471  -4.5471  -4.3833  -4.3833  -4.2399  -4.2399  -3.9531  -3.9531
    -3.4704  -3.4704  -3.4636  -3.4636  -3.3862  -3.3862  -3.3852  -3.3852
    -3.3733  -3.3733  -3.3718  -3.3718  -3.3681  -3.3681  -3.3672  -3.3672
    -1.5488  -1.5488  -1.5472  -1.5472  -1.4761  -1.4761  -1.4699  -1.4699
    -1.4213  -1.4213  -1.4195  -1.4195  -1.3887  -1.3887  -1.3857  -1.3857
    -1.3722  -1.3722  -1.3701  -1.3701  -1.3445  -1.3445  -1.3441  -1.3441
    -1.3188  -1.3188  -1.3170  -1.3170  -1.3071  -1.3071  -1.3052  -1.3052
    -0.7786  -0.7786  -0.2757  -0.2757   0.3696   0.3696   1.3559   1.3559
     1.7296   1.7296   2.0103   2.0103   2.7544   2.7544   3.0100   3.0100
     4.1360   4.1360   4.2994   4.2994   4.3644   4.3644   4.6095   4.6095
     4.9065   4.9065   5.1577   5.1577   5.4567   5.4567   5.5040   5.5040
     6.1829   6.1829   6.2822   6.2822   6.3787   6.3787   6.3991   6.3991
     6.4970   6.4970   6.5501   6.5501   6.5710   6.5710   6.5848   6.5848
     6.5986   6.5986   6.6168   6.6168   6.6580   6.6580   6.8071   6.8071
     6.8453   6.8453   6.8520   6.8520   7.1120   7.1120   7.1372   7.1372
     7.1703   7.1703   7.1998   7.1998   7.2632   7.2632   7.2947   7.2947
     7.3151   7.3151   7.3285   7.3285   7.3692   7.3692   7.4548   7.4548
     7.5216   7.5216   7.5596   7.5596   7.5623   7.5623   7.6071   7.6071
     7.6173   7.6173   7.6569   7.6569   7.7341   7.7341   7.7384   7.7384
     7.7807   7.7807   7.7873   7.7873   7.7897   7.7897   7.8052   7.8052
     7.8695   7.8695   7.8803   7.8803   7.9251   7.9251   7.9439   7.9439
     7.9487   7.9487   7.9774   7.9774   8.0070   8.0070   8.0111   8.0111
     8.0783   8.0783   8.0882   8.0882   8.1347   8.1347   8.1781   8.1781
     8.2490   8.2490   8.2761   8.2761   8.2874   8.2874   8.3603   8.3603
     8.3673   8.3673   8.4016   8.4016   8.4886   8.4886   8.6087   8.6087
     9.0735   9.0735   9.3082   9.3082  10.4524  10.4524  11.0436  11.0436
    11.5167  11.5167  11.7968  11.7968  12.3759  12.3759  12.5762  12.5762
    13.6385  13.6385  13.8979  13.8979  14.1238  14.1238  14.1279  14.1279
    14.2727  14.2727  14.2942  14.2942  14.3448  14.3448  14.4801  14.4801
    14.5533  14.5533  14.7942  14.7942  14.8189  14.8189  14.8555  14.8555
    14.9255  14.9255  14.9837  14.9837  15.2601  15.2601  15.3060  15.3060
    15.3620  15.3620  15.3749  15.3749  15.4045  15.4045  15.4374  15.4374
    15.5659  15.5659  15.6191  15.6191  15.6379  15.6379  15.6680  15.6680
    15.6819  15.6819  15.6858  15.6858  15.8901  15.8901  15.9099  15.9099
    16.0092  16.0092  16.0220  16.0220  16.0308  16.0308  16.0400  16.0400
    16.0534  16.0534  16.0907  16.0907  16.1189  16.1189  16.1300  16.1300
    16.1857  16.1857  16.2010  16.2010  16.3178  16.3178  16.3690  16.3759

          k =-0.5000-0.5000 0.0000 ( 49600 PWs)   bands (ev):

   -16.8498 -16.8498 -16.8490 -16.8490 -16.8489 -16.8489 -16.8489 -16.8489
   -16.8253 -16.8253 -16.8253 -16.8253 -16.8252 -16.8252 -16.8247 -16.8247
   -14.5743 -14.5743 -14.5450 -14.5450 -14.4988 -14.4988 -14.4903 -14.4903
   -14.4491 -14.4491 -14.4444 -14.4444 -11.8195 -11.8195 -11.7311 -11.7311
   -11.6761 -11.6761 -11.6376 -11.6376 -11.6347 -11.6347 -11.6335 -11.6335
   -11.4909 -11.4909 -11.4387 -11.4387 -11.3850 -11.3850  -8.7794  -8.7794
    -8.7790  -8.7790  -8.6919  -8.6919  -8.6853  -8.6853  -8.6516  -8.6516
    -8.6503  -8.6503  -8.5415  -8.5415  -8.5342  -8.5342  -8.4161  -8.4161
    -8.3942  -8.3942  -8.3940  -8.3940  -8.1454  -8.1454  -8.1232  -8.1232
    -8.1214  -8.1214  -8.0418  -8.0418  -7.9206  -7.9206  -7.6078  -7.6078
    -7.5372  -7.5372  -7.4308  -7.4308  -7.4251  -7.4251  -7.2922  -7.2922
    -7.2922  -7.2922  -7.0324  -7.0324  -7.0319  -7.0319  -6.9839  -6.9839
    -6.9303  -6.9303  -6.9032  -6.9032  -6.8982  -6.8982  -6.8921  -6.8921
    -6.7994  -6.7994  -6.7973  -6.7973  -6.7913  -6.7913  -6.7376  -6.7376
    -6.7165  -6.7165  -5.2549  -5.2549  -5.2543  -5.2543  -5.2316  -5.2316
    -5.2310  -5.2310  -5.1367  -5.1367  -5.1367  -5.1367  -5.1016  -5.1016
    -4.7632  -4.7632  -4.7628  -4.7628  -4.6296  -4.6296  -4.6258  -4.6258
    -4.5741  -4.5741  -4.5364  -4.5364  -4.1092  -4.1092  -4.1080  -4.1080
    -3.4391  -3.4391  -3.4320  -3.4320  -3.4201  -3.4201  -3.4187  -3.4187
    -3.3736  -3.3736  -3.3705  -3.3705  -3.3654  -3.3654  -3.3642  -3.3642
    -1.5052  -1.5052  -1.5023  -1.5023  -1.4667  -1.4667  -1.4650  -1.4650
    -1.4150  -1.4150  -1.4113  -1.4113  -1.4013  -1.4013  -1.3966  -1.3966
    -1.3933  -1.3933  -1.3907  -1.3907  -1.3819  -1.3819  -1.3747  -1.3747
    -1.3208  -1.3208  -1.3207  -1.3207  -1.2952  -1.2952  -1.2927  -1.2927
    -0.8454  -0.8454  -0.1622  -0.1622   0.8093   0.8093   1.0092   1.0092
     1.0195   1.0195   2.2595   2.2595   2.5010   2.5010   2.5472   2.5472
     3.7838   3.7838   4.3756   4.3756   4.8644   4.8644   4.8654   4.8654
     5.7297   5.7297   5.7653   5.7653   5.9582   5.9582   5.9694   5.9694
     5.9993   5.9993   6.0581   6.0581   6.1834   6.1834   6.4167   6.4167
     6.5425   6.5425   6.5519   6.5519   6.5650   6.5650   6.5751   6.5751
     6.5871   6.5871   6.5953   6.5953   6.7480   6.7480   6.7490   6.7490
     6.8385   6.8385   6.8418   6.8418   6.9572   6.9572   7.0279   7.0279
     7.0903   7.0903   7.1109   7.1109   7.1807   7.1807   7.1819   7.1819
     7.2510   7.2510   7.2976   7.2976   7.3242   7.3242   7.3284   7.3284
     7.5517   7.5517   7.5554   7.5554   7.5604   7.5604   7.5654   7.5654
     7.5776   7.5776   7.7133   7.7133   7.7291   7.7291   7.7393   7.7393
     7.7397   7.7397   7.7901   7.7901   7.7905   7.7905   7.8631   7.8631
     7.8728   7.8728   7.8967   7.8967   7.9403   7.9403   7.9498   7.9498
     7.9833   7.9833   7.9860   7.9860   8.0415   8.0415   8.0453   8.0453
     8.0782   8.0782   8.0825   8.0825   8.0993   8.0993   8.1698   8.1698
     8.2980   8.2980   8.3093   8.3093   8.3288   8.3288   8.3384   8.3384
     8.3428   8.3428   8.3841   8.3841   8.4258   8.4258   8.4967   8.4967
     9.2251   9.2251   9.7520   9.7520  10.1792  10.1792  10.1957  10.1957
    10.9234  10.9234  11.9851  11.9851  12.1319  12.1319  12.2459  12.2459
    13.6666  13.6666  14.1588  14.1588  14.3951  14.3951  14.4097  14.4097
    14.4244  14.4244  14.4322  14.4322  14.6207  14.6207  14.6300  14.6300
    14.7323  14.7323  14.7916  14.7916  14.8394  14.8394  14.8569  14.8569
    14.8690  14.8690  14.8999  14.8999  15.0459  15.0459  15.0631  15.0631
    15.3700  15.3700  15.4316  15.4316  15.5367  15.5367  15.5421  15.5421
    15.5651  15.5651  15.5757  15.5757  15.6653  15.6653  15.6655  15.6655
    15.6924  15.6924  15.6947  15.6947  15.7018  15.7018  15.7155  15.7155
    15.8444  15.8444  15.9142  15.9142  15.9196  15.9196  15.9296  15.9296
    16.0418  16.0418  16.0478  16.0478  16.0690  16.0690  16.0726  16.0726
    16.1495  16.1495  16.1521  16.1521  16.2200  16.2200  16.4395  16.4436

          k = 0.2500-0.5000 0.2500 ( 49498 PWs)   bands (ev):

   -16.8550 -16.8550 -16.8545 -16.8545 -16.8367 -16.8367 -16.8366 -16.8366
   -16.8364 -16.8364 -16.8364 -16.8364 -16.8209 -16.8209 -16.8206 -16.8206
   -14.5681 -14.5681 -14.5451 -14.5451 -14.5047 -14.5047 -14.4904 -14.4904
   -14.4493 -14.4493 -14.4442 -14.4442 -11.7966 -11.7966 -11.7325 -11.7325
   -11.6775 -11.6775 -11.6613 -11.6613 -11.6392 -11.6392 -11.6332 -11.6332
   -11.4907 -11.4907 -11.4389 -11.4389 -11.3850 -11.3850  -8.8228  -8.8228
    -8.7599  -8.7599  -8.7049  -8.7049  -8.6886  -8.6886  -8.6376  -8.6376
    -8.6295  -8.6295  -8.5614  -8.5614  -8.4850  -8.4850  -8.4502  -8.4502
    -8.3612  -8.3612  -8.3076  -8.3076  -8.2313  -8.2313  -8.1646  -8.1646
    -8.0308  -8.0308  -7.9606  -7.9606  -7.8217  -7.8217  -7.7375  -7.7375
    -7.6444  -7.6444  -7.5661  -7.5661  -7.2780  -7.2780  -7.2668  -7.2668
    -7.1794  -7.1794  -7.1404  -7.1404  -7.0620  -7.0620  -7.0232  -7.0232
    -6.9714  -6.9714  -6.9155  -6.9155  -6.9053  -6.9053  -6.8568  -6.8568
    -6.8287  -6.8287  -6.8049  -6.8049  -6.7727  -6.7727  -6.7639  -6.7639
    -6.7284  -6.7284  -5.2302  -5.2302  -5.2300  -5.2300  -5.1425  -5.1425
    -5.1387  -5.1387  -5.1010  -5.1010  -5.0922  -5.0922  -5.0602  -5.0602
    -4.9510  -4.9510  -4.7632  -4.7632  -4.7474  -4.7474  -4.6133  -4.6133
    -4.5635  -4.5635  -4.4012  -4.4012  -4.2476  -4.2476  -4.0858  -4.0858
    -3.4563  -3.4563  -3.4504  -3.4504  -3.3843  -3.3843  -3.3838  -3.3838
    -3.3825  -3.3825  -3.3811  -3.3811  -3.3730  -3.3730  -3.3715  -3.3715
    -1.5324  -1.5324  -1.5303  -1.5303  -1.4472  -1.4472  -1.4425  -1.4425
    -1.4252  -1.4252  -1.4235  -1.4235  -1.4148  -1.4148  -1.4121  -1.4121
    -1.3884  -1.3884  -1.3847  -1.3847  -1.3347  -1.3347  -1.3342  -1.3342
    -1.3238  -1.3238  -1.3228  -1.3228  -1.3040  -1.3040  -1.3027  -1.3027
    -0.7416  -0.7416  -0.2141  -0.2141   0.3830   0.3830   1.3138   1.3138
     1.4074   1.4074   1.8048   1.8048   2.3906   2.3906   2.5975   2.5975
     4.3086   4.3086   4.7591   4.7591   4.9247   4.9247   5.0092   5.0092
     5.1553   5.1553   5.3734   5.3734   5.5397   5.5397   5.6171   5.6171
     6.1973   6.1973   6.2700   6.2700   6.3257   6.3257   6.3474   6.3474
     6.4816   6.4816   6.5257   6.5257   6.5495   6.5495   6.5799   6.5799
     6.5829   6.5829   6.6146   6.6146   6.6758   6.6758   6.7445   6.7445
     6.7860   6.7860   6.8359   6.8359   7.1084   7.1084   7.1200   7.1200
     7.1385   7.1385   7.1991   7.1991   7.2087   7.2087   7.2398   7.2398
     7.2754   7.2754   7.3349   7.3349   7.3448   7.3448   7.3857   7.3857
     7.4669   7.4669   7.4803   7.4803   7.4877   7.4877   7.4964   7.4964
     7.5231   7.5231   7.5822   7.5822   7.6179   7.6179   7.6399   7.6399
     7.7899   7.7899   7.8072   7.8072   7.8470   7.8470   7.8690   7.8690
     7.8903   7.8903   7.9697   7.9697   7.9802   7.9802   8.0184   8.0184
     8.0642   8.0642   8.0683   8.0683   8.0743   8.0743   8.0907   8.0907
     8.1209   8.1209   8.1430   8.1430   8.1536   8.1536   8.1921   8.1921
     8.2177   8.2177   8.2520   8.2520   8.3401   8.3401   8.3441   8.3441
     8.3972   8.3972   8.4030   8.4030   8.4518   8.4518   8.5735   8.5735
     9.1316   9.1316   9.4264   9.4264  10.3955  10.3955  10.8958  10.8958
    10.9325  10.9325  11.4051  11.4051  11.9462  11.9462  12.1589  12.1589
    13.8925  13.8925  14.1778  14.1778  14.2628  14.2628  14.2696  14.2696
    14.3796  14.3796  14.3999  14.3999  14.5076  14.5076  14.6115  14.6115
    14.7651  14.7651  14.8474  14.8474  14.8536  14.8536  14.8935  14.8935
    14.9783  14.9783  15.0345  15.0345  15.0613  15.0613  15.1605  15.1605
    15.1800  15.1800  15.2324  15.2324  15.4805  15.4805  15.5111  15.5111
    15.5489  15.5489  15.5634  15.5634  15.5867  15.5867  15.6615  15.6615
    15.7883  15.7883  15.8000  15.8000  15.8334  15.8334  15.8507  15.8507
    15.8786  15.8786  15.9007  15.9007  15.9246  15.9246  15.9540  15.9540
    15.9773  15.9773  16.0134  16.0134  16.1322  16.1322  16.1624  16.1624
    16.1770  16.1770  16.2111  16.2111  16.3265  16.3268  16.3500  16.3513

          k =-0.5000-0.5000 0.2500 ( 49512 PWs)   bands (ev):

   -16.8462 -16.8462 -16.8455 -16.8455 -16.8455 -16.8455 -16.8454 -16.8454
   -16.8289 -16.8289 -16.8287 -16.8287 -16.8287 -16.8287 -16.8283 -16.8283
   -14.5681 -14.5681 -14.5450 -14.5450 -14.5046 -14.5046 -14.4903 -14.4903
   -14.4491 -14.4491 -14.4442 -14.4442 -11.7963 -11.7963 -11.7311 -11.7311
   -11.6761 -11.6761 -11.6607 -11.6607 -11.6376 -11.6376 -11.6329 -11.6329
   -11.4907 -11.4907 -11.4389 -11.4389 -11.3850 -11.3850  -8.7059  -8.7059
    -8.7046  -8.7046  -8.6562  -8.6562  -8.6503  -8.6503  -8.6502  -8.6502
    -8.6318  -8.6318  -8.5425  -8.5425  -8.5351  -8.5351  -8.4161  -8.4161
    -8.4079  -8.4079  -8.4076  -8.4076  -8.3176  -8.3176  -8.2285  -8.2285
    -8.1179  -8.1179  -8.1165  -8.1165  -7.8709  -7.8709  -7.7534  -7.7534
    -7.7502  -7.7502  -7.5603  -7.5603  -7.1791  -7.1791  -7.0668  -7.0668
    -7.0624  -7.0624  -7.0309  -7.0309  -7.0297  -7.0297  -6.9803  -6.9803
    -6.9305  -6.9305  -6.9062  -6.9062  -6.9020  -6.9020  -6.8930  -6.8930
    -6.8484  -6.8484  -6.8142  -6.8142  -6.8036  -6.8036  -6.7951  -6.7951
    -6.7503  -6.7503  -5.2301  -5.2301  -5.2299  -5.2299  -5.1390  -5.1390
    -5.1385  -5.1385  -5.1019  -5.1019  -5.0637  -5.0637  -5.0629  -5.0629
    -4.7627  -4.7627  -4.7625  -4.7625  -4.6305  -4.6305  -4.6267  -4.6267
    -4.5944  -4.5944  -4.5364  -4.5364  -4.2552  -4.2552  -4.2539  -4.2539
    -3.4281  -3.4281  -3.4220  -3.4220  -3.4128  -3.4128  -3.4118  -3.4118
    -3.3802  -3.3802  -3.3778  -3.3778  -3.3749  -3.3749  -3.3729  -3.3729
    -1.4981  -1.4981  -1.4955  -1.4955  -1.4637  -1.4637  -1.4622  -1.4622
    -1.4223  -1.4223  -1.4206  -1.4206  -1.4021  -1.4021  -1.3975  -1.3975
    -1.3919  -1.3919  -1.3878  -1.3878  -1.3703  -1.3703  -1.3684  -1.3684
    -1.3200  -1.3200  -1.3195  -1.3195  -1.2960  -1.2960  -1.2946  -1.2946
    -0.6982  -0.6982  -0.1350  -0.1350   0.3986   0.3986   1.1311   1.1311
     1.1413   1.1413   1.9152   1.9152   2.1172   2.1172   2.1465   2.1465
     4.3486   4.3486   4.9543   4.9543   5.3288   5.3288   5.3550   5.3550
     5.7292   5.7292   5.7915   5.7915   5.9391   5.9391   5.9812   5.9812
     6.0196   6.0196   6.0593   6.0593   6.1792   6.1792   6.3409   6.3409
     6.4892   6.4892   6.5034   6.5034   6.5339   6.5339   6.5447   6.5447
     6.5578   6.5578   6.5784   6.5784   6.6227   6.6227   6.7057   6.7057
     6.7095   6.7095   6.8090   6.8090   6.9146   6.9146   6.9668   6.9668
     7.1116   7.1116   7.1275   7.1275   7.1814   7.1814   7.1832   7.1832
     7.2642   7.2642   7.2852   7.2852   7.3156   7.3156   7.3317   7.3317
     7.3678   7.3678   7.4280   7.4280   7.4299   7.4299   7.4454   7.4454
     7.4506   7.4506   7.4574   7.4574   7.5109   7.5109   7.6026   7.6026
     7.8631   7.8631   7.8995   7.8995   7.9015   7.9015   8.0415   8.0415
     8.0521   8.0521   8.0542   8.0542   8.0650   8.0650   8.0738   8.0738
     8.0767   8.0767   8.0884   8.0884   8.1247   8.1247   8.1271   8.1271
     8.1327   8.1327   8.1400   8.1400   8.1510   8.1510   8.2920   8.2920
     8.3091   8.3091   8.3115   8.3115   8.3222   8.3222   8.3419   8.3419
     8.3501   8.3501   8.3698   8.3698   8.3969   8.3969   8.4647   8.4647
     9.2703   9.2703   9.7578   9.7578  10.2895  10.2895  10.3073  10.3073
    10.3213  10.3213  11.4317  11.4317  11.6357  11.6357  11.7019  11.7019
    14.0719  14.0719  14.4416  14.4416  14.5001  14.5001  14.5318  14.5318
    14.5424  14.5424  14.5665  14.5665  14.7057  14.7057  14.7621  14.7621
    14.7731  14.7731  14.7976  14.7976  14.8106  14.8106  14.8293  14.8293
    14.8321  14.8321  14.8659  14.8659  14.9515  14.9515  14.9778  14.9778
    15.3299  15.3299  15.3776  15.3776  15.4570  15.4570  15.4780  15.4780
    15.5378  15.5378  15.5552  15.5552  15.5972  15.5972  15.6286  15.6286
    15.6709  15.6709  15.6992  15.6992  15.7151  15.7151  15.7575  15.7575
    15.7989  15.7989  15.8241  15.8241  15.8402  15.8402  15.8617  15.8617
    15.9304  15.9304  15.9362  15.9362  16.0467  16.0467  16.0578  16.0578
    16.0832  16.0832  16.2088  16.2088  16.2948  16.2948  16.3060  16.3060

     the Fermi energy is     9.6863 ev
     (compare with:     9.6185 eV, computed in scf)

     Writing all to output data dir ./out/bpbo.save/ :
     XML data file, pseudopotentials, collected wavefunctions

     init_run     :      7.64s CPU     10.53s WALL (       1 calls)
     electrons    :   6466.34s CPU   3728.34s WALL (       1 calls)

     Called by init_run:
     wfcinit      :      0.00s CPU      0.91s WALL (       1 calls)
     potinit      :      3.47s CPU      5.13s WALL (       1 calls)
     hinit0       :      1.59s CPU      1.90s WALL (       1 calls)

     Called by electrons:
     c_bands      :   6466.07s CPU   3726.95s WALL (       1 calls)
     v_of_rho     :      1.74s CPU      1.26s WALL (       1 calls)
     newd         :      1.84s CPU      1.74s WALL (       1 calls)

     Called by c_bands:
     init_us_2    :      0.26s CPU      0.35s WALL (       1 calls)
     cegterg      :   6125.18s CPU   3289.21s WALL (       6 calls)

     Called by *egterg:
     cdiaghg      :     67.19s CPU     39.72s WALL (     121 calls)
     h_psi        :   4021.71s CPU   2200.67s WALL (     127 calls)
     s_psi        :    320.71s CPU    164.44s WALL (     127 calls)
     g_psi        :     13.85s CPU      7.02s WALL (     120 calls)

     Called by h_psi:
     h_psi:calbec :    340.33s CPU    172.84s WALL (     127 calls)
     vloc_psi     :   3342.31s CPU   1854.11s WALL (     127 calls)
     add_vuspsi   :    317.28s CPU    161.81s WALL (     127 calls)

     General routines
     calbec       :    340.33s CPU    172.84s WALL (     127 calls)
     fft          :      1.87s CPU      1.31s WALL (      19 calls)
     ffts         :      0.17s CPU      0.10s WALL (       4 calls)
     fftw         :   1546.77s CPU    799.93s WALL (   91328 calls)
     interpolate  :      0.68s CPU      0.43s WALL (       4 calls)
     davcio       :      0.01s CPU      1.21s WALL (       2 calls)

     Parallel routines

     PWSCF        :   6579.19s CPU   4062.82s WALL


   This run was terminated on:   8:40:51  23Jun2025            

=------------------------------------------------------------------------------=
   JOB DONE.
=------------------------------------------------------------------------------=
